+ 0.1 0 3 tcp 40 ------- 1 0.0 3.0 0 0
- 0.1 0 3 tcp 40 ------- 1 0.0 3.0 0 0
r 0.11016 0 3 tcp 40 ------- 1 0.0 3.0 0 0
+ 0.11016 3 0 ack 40 ------- 1 3.0 0.0 0 1
- 0.11016 3 0 ack 40 ------- 1 3.0 0.0 0 1
r 0.12032 3 0 ack 40 ------- 1 3.0 0.0 0 1
+ 0.12032 0 3 tcp 1040 ------- 1 0.0 3.0 1 2
- 0.12032 0 3 tcp 1040 ------- 1 0.0 3.0 1 2
+ 0.12032 0 3 tcp 1040 ------- 1 0.0 3.0 2 3
- 0.12448 0 3 tcp 1040 ------- 1 0.0 3.0 2 3
r 0.13448 0 3 tcp 1040 ------- 1 0.0 3.0 1 2
+ 0.13448 3 0 ack 40 ------- 1 3.0 0.0 1 4
- 0.13448 3 0 ack 40 ------- 1 3.0 0.0 1 4
r 0.13864 0 3 tcp 1040 ------- 1 0.0 3.0 2 3
+ 0.13864 3 0 ack 40 ------- 1 3.0 0.0 2 5
- 0.13864 3 0 ack 40 ------- 1 3.0 0.0 2 5
r 0.14464 3 0 ack 40 ------- 1 3.0 0.0 1 4
+ 0.14464 0 3 tcp 1040 ------- 1 0.0 3.0 3 6
- 0.14464 0 3 tcp 1040 ------- 1 0.0 3.0 3 6
+ 0.14464 0 3 tcp 1040 ------- 1 0.0 3.0 4 7
r 0.1488 3 0 ack 40 ------- 1 3.0 0.0 2 5
+ 0.1488 0 3 tcp 1040 ------- 1 0.0 3.0 5 8
+ 0.1488 0 3 tcp 1040 ------- 1 0.0 3.0 6 9
- 0.1488 0 3 tcp 1040 ------- 1 0.0 3.0 4 7
- 0.15296 0 3 tcp 1040 ------- 1 0.0 3.0 5 8
- 0.15712 0 3 tcp 1040 ------- 1 0.0 3.0 6 9
r 0.1588 0 3 tcp 1040 ------- 1 0.0 3.0 3 6
+ 0.1588 3 0 ack 40 ------- 1 3.0 0.0 3 10
- 0.1588 3 0 ack 40 ------- 1 3.0 0.0 3 10
r 0.16296 0 3 tcp 1040 ------- 1 0.0 3.0 4 7
+ 0.16296 3 0 ack 40 ------- 1 3.0 0.0 4 11
- 0.16296 3 0 ack 40 ------- 1 3.0 0.0 4 11
r 0.16712 0 3 tcp 1040 ------- 1 0.0 3.0 5 8
+ 0.16712 3 0 ack 40 ------- 1 3.0 0.0 5 12
- 0.16712 3 0 ack 40 ------- 1 3.0 0.0 5 12
r 0.16896 3 0 ack 40 ------- 1 3.0 0.0 3 10
+ 0.16896 0 3 tcp 1040 ------- 1 0.0 3.0 7 13
- 0.16896 0 3 tcp 1040 ------- 1 0.0 3.0 7 13
+ 0.16896 0 3 tcp 1040 ------- 1 0.0 3.0 8 14
r 0.17128 0 3 tcp 1040 ------- 1 0.0 3.0 6 9
+ 0.17128 3 0 ack 40 ------- 1 3.0 0.0 6 15
- 0.17128 3 0 ack 40 ------- 1 3.0 0.0 6 15
r 0.17312 3 0 ack 40 ------- 1 3.0 0.0 4 11
+ 0.17312 0 3 tcp 1040 ------- 1 0.0 3.0 9 16
+ 0.17312 0 3 tcp 1040 ------- 1 0.0 3.0 10 17
- 0.17312 0 3 tcp 1040 ------- 1 0.0 3.0 8 14
r 0.17728 3 0 ack 40 ------- 1 3.0 0.0 5 12
+ 0.17728 0 3 tcp 1040 ------- 1 0.0 3.0 11 18
+ 0.17728 0 3 tcp 1040 ------- 1 0.0 3.0 12 19
- 0.17728 0 3 tcp 1040 ------- 1 0.0 3.0 9 16
r 0.18144 3 0 ack 40 ------- 1 3.0 0.0 6 15
+ 0.18144 0 3 tcp 1040 ------- 1 0.0 3.0 13 20
+ 0.18144 0 3 tcp 1040 ------- 1 0.0 3.0 14 21
- 0.18144 0 3 tcp 1040 ------- 1 0.0 3.0 10 17
r 0.18312 0 3 tcp 1040 ------- 1 0.0 3.0 7 13
+ 0.18312 3 0 ack 40 ------- 1 3.0 0.0 7 22
- 0.18312 3 0 ack 40 ------- 1 3.0 0.0 7 22
- 0.1856 0 3 tcp 1040 ------- 1 0.0 3.0 11 18
r 0.18728 0 3 tcp 1040 ------- 1 0.0 3.0 8 14
+ 0.18728 3 0 ack 40 ------- 1 3.0 0.0 8 23
- 0.18728 3 0 ack 40 ------- 1 3.0 0.0 8 23
- 0.18976 0 3 tcp 1040 ------- 1 0.0 3.0 12 19
r 0.19144 0 3 tcp 1040 ------- 1 0.0 3.0 9 16
+ 0.19144 3 0 ack 40 ------- 1 3.0 0.0 9 24
- 0.19144 3 0 ack 40 ------- 1 3.0 0.0 9 24
r 0.19328 3 0 ack 40 ------- 1 3.0 0.0 7 22
+ 0.19328 0 3 tcp 1040 ------- 1 0.0 3.0 15 25
+ 0.19328 0 3 tcp 1040 ------- 1 0.0 3.0 16 26
- 0.19392 0 3 tcp 1040 ------- 1 0.0 3.0 13 20
r 0.1956 0 3 tcp 1040 ------- 1 0.0 3.0 10 17
+ 0.1956 3 0 ack 40 ------- 1 3.0 0.0 10 27
- 0.1956 3 0 ack 40 ------- 1 3.0 0.0 10 27
r 0.19744 3 0 ack 40 ------- 1 3.0 0.0 8 23
+ 0.19744 0 3 tcp 1040 ------- 1 0.0 3.0 17 28
+ 0.19744 0 3 tcp 1040 ------- 1 0.0 3.0 18 29
- 0.19808 0 3 tcp 1040 ------- 1 0.0 3.0 14 21
r 0.19976 0 3 tcp 1040 ------- 1 0.0 3.0 11 18
+ 0.19976 3 0 ack 40 ------- 1 3.0 0.0 11 30
- 0.19976 3 0 ack 40 ------- 1 3.0 0.0 11 30
r 0.2016 3 0 ack 40 ------- 1 3.0 0.0 9 24
+ 0.2016 0 3 tcp 1040 ------- 1 0.0 3.0 19 31
+ 0.2016 0 3 tcp 1040 ------- 1 0.0 3.0 20 32
- 0.20224 0 3 tcp 1040 ------- 1 0.0 3.0 15 25
r 0.20392 0 3 tcp 1040 ------- 1 0.0 3.0 12 19
+ 0.20392 3 0 ack 40 ------- 1 3.0 0.0 12 33
- 0.20392 3 0 ack 40 ------- 1 3.0 0.0 12 33
r 0.20576 3 0 ack 40 ------- 1 3.0 0.0 10 27
+ 0.20576 0 3 tcp 1040 ------- 1 0.0 3.0 21 34
+ 0.20576 0 3 tcp 1040 ------- 1 0.0 3.0 22 35
- 0.2064 0 3 tcp 1040 ------- 1 0.0 3.0 16 26
r 0.20808 0 3 tcp 1040 ------- 1 0.0 3.0 13 20
+ 0.20808 3 0 ack 40 ------- 1 3.0 0.0 13 36
- 0.20808 3 0 ack 40 ------- 1 3.0 0.0 13 36
r 0.20992 3 0 ack 40 ------- 1 3.0 0.0 11 30
+ 0.20992 0 3 tcp 1040 ------- 1 0.0 3.0 23 37
+ 0.20992 0 3 tcp 1040 ------- 1 0.0 3.0 24 38
- 0.21056 0 3 tcp 1040 ------- 1 0.0 3.0 17 28
r 0.21224 0 3 tcp 1040 ------- 1 0.0 3.0 14 21
+ 0.21224 3 0 ack 40 ------- 1 3.0 0.0 14 39
- 0.21224 3 0 ack 40 ------- 1 3.0 0.0 14 39
r 0.21408 3 0 ack 40 ------- 1 3.0 0.0 12 33
+ 0.21408 0 3 tcp 1040 ------- 1 0.0 3.0 25 40
+ 0.21408 0 3 tcp 1040 ------- 1 0.0 3.0 26 41
- 0.21472 0 3 tcp 1040 ------- 1 0.0 3.0 18 29
r 0.2164 0 3 tcp 1040 ------- 1 0.0 3.0 15 25
+ 0.2164 3 0 ack 40 ------- 1 3.0 0.0 15 42
- 0.2164 3 0 ack 40 ------- 1 3.0 0.0 15 42
r 0.21824 3 0 ack 40 ------- 1 3.0 0.0 13 36
+ 0.21824 0 3 tcp 1040 ------- 1 0.0 3.0 27 43
+ 0.21824 0 3 tcp 1040 ------- 1 0.0 3.0 28 44
- 0.21888 0 3 tcp 1040 ------- 1 0.0 3.0 19 31
r 0.22056 0 3 tcp 1040 ------- 1 0.0 3.0 16 26
+ 0.22056 3 0 ack 40 ------- 1 3.0 0.0 16 45
- 0.22056 3 0 ack 40 ------- 1 3.0 0.0 16 45
r 0.2224 3 0 ack 40 ------- 1 3.0 0.0 14 39
+ 0.2224 0 3 tcp 1040 ------- 1 0.0 3.0 29 46
+ 0.2224 0 3 tcp 1040 ------- 1 0.0 3.0 30 47
- 0.22304 0 3 tcp 1040 ------- 1 0.0 3.0 20 32
r 0.22472 0 3 tcp 1040 ------- 1 0.0 3.0 17 28
+ 0.22472 3 0 ack 40 ------- 1 3.0 0.0 17 48
- 0.22472 3 0 ack 40 ------- 1 3.0 0.0 17 48
r 0.22656 3 0 ack 40 ------- 1 3.0 0.0 15 42
+ 0.22656 0 3 tcp 1040 ------- 1 0.0 3.0 31 49
+ 0.22656 0 3 tcp 1040 ------- 1 0.0 3.0 32 50
- 0.2272 0 3 tcp 1040 ------- 1 0.0 3.0 21 34
r 0.22888 0 3 tcp 1040 ------- 1 0.0 3.0 18 29
+ 0.22888 3 0 ack 40 ------- 1 3.0 0.0 18 51
- 0.22888 3 0 ack 40 ------- 1 3.0 0.0 18 51
r 0.23072 3 0 ack 40 ------- 1 3.0 0.0 16 45
+ 0.23072 0 3 tcp 1040 ------- 1 0.0 3.0 33 52
+ 0.23072 0 3 tcp 1040 ------- 1 0.0 3.0 34 53
- 0.23136 0 3 tcp 1040 ------- 1 0.0 3.0 22 35
r 0.23304 0 3 tcp 1040 ------- 1 0.0 3.0 19 31
+ 0.23304 3 0 ack 40 ------- 1 3.0 0.0 19 54
- 0.23304 3 0 ack 40 ------- 1 3.0 0.0 19 54
r 0.23488 3 0 ack 40 ------- 1 3.0 0.0 17 48
+ 0.23488 0 3 tcp 1040 ------- 1 0.0 3.0 35 55
+ 0.23488 0 3 tcp 1040 ------- 1 0.0 3.0 36 56
- 0.23552 0 3 tcp 1040 ------- 1 0.0 3.0 23 37
r 0.2372 0 3 tcp 1040 ------- 1 0.0 3.0 20 32
+ 0.2372 3 0 ack 40 ------- 1 3.0 0.0 20 57
- 0.2372 3 0 ack 40 ------- 1 3.0 0.0 20 57
r 0.23904 3 0 ack 40 ------- 1 3.0 0.0 18 51
+ 0.23904 0 3 tcp 1040 ------- 1 0.0 3.0 37 58
+ 0.23904 0 3 tcp 1040 ------- 1 0.0 3.0 38 59
- 0.23968 0 3 tcp 1040 ------- 1 0.0 3.0 24 38
r 0.24136 0 3 tcp 1040 ------- 1 0.0 3.0 21 34
+ 0.24136 3 0 ack 40 ------- 1 3.0 0.0 21 60
- 0.24136 3 0 ack 40 ------- 1 3.0 0.0 21 60
r 0.2432 3 0 ack 40 ------- 1 3.0 0.0 19 54
+ 0.2432 0 3 tcp 1040 ------- 1 0.0 3.0 39 61
- 0.24384 0 3 tcp 1040 ------- 1 0.0 3.0 25 40
r 0.24552 0 3 tcp 1040 ------- 1 0.0 3.0 22 35
+ 0.24552 3 0 ack 40 ------- 1 3.0 0.0 22 62
- 0.24552 3 0 ack 40 ------- 1 3.0 0.0 22 62
r 0.24736 3 0 ack 40 ------- 1 3.0 0.0 20 57
+ 0.24736 0 3 tcp 1040 ------- 1 0.0 3.0 40 63
- 0.248 0 3 tcp 1040 ------- 1 0.0 3.0 26 41
r 0.24968 0 3 tcp 1040 ------- 1 0.0 3.0 23 37
+ 0.24968 3 0 ack 40 ------- 1 3.0 0.0 23 64
- 0.24968 3 0 ack 40 ------- 1 3.0 0.0 23 64
r 0.25152 3 0 ack 40 ------- 1 3.0 0.0 21 60
+ 0.25152 0 3 tcp 1040 ------- 1 0.0 3.0 41 65
- 0.25216 0 3 tcp 1040 ------- 1 0.0 3.0 27 43
r 0.25384 0 3 tcp 1040 ------- 1 0.0 3.0 24 38
+ 0.25384 3 0 ack 40 ------- 1 3.0 0.0 24 66
- 0.25384 3 0 ack 40 ------- 1 3.0 0.0 24 66
r 0.25568 3 0 ack 40 ------- 1 3.0 0.0 22 62
+ 0.25568 0 3 tcp 1040 ------- 1 0.0 3.0 42 67
- 0.25632 0 3 tcp 1040 ------- 1 0.0 3.0 28 44
r 0.258 0 3 tcp 1040 ------- 1 0.0 3.0 25 40
+ 0.258 3 0 ack 40 ------- 1 3.0 0.0 25 68
- 0.258 3 0 ack 40 ------- 1 3.0 0.0 25 68
r 0.25984 3 0 ack 40 ------- 1 3.0 0.0 23 64
+ 0.25984 0 3 tcp 1040 ------- 1 0.0 3.0 43 69
- 0.26048 0 3 tcp 1040 ------- 1 0.0 3.0 29 46
r 0.26216 0 3 tcp 1040 ------- 1 0.0 3.0 26 41
+ 0.26216 3 0 ack 40 ------- 1 3.0 0.0 26 70
- 0.26216 3 0 ack 40 ------- 1 3.0 0.0 26 70
r 0.264 3 0 ack 40 ------- 1 3.0 0.0 24 66
+ 0.264 0 3 tcp 1040 ------- 1 0.0 3.0 44 71
- 0.26464 0 3 tcp 1040 ------- 1 0.0 3.0 30 47
r 0.26632 0 3 tcp 1040 ------- 1 0.0 3.0 27 43
+ 0.26632 3 0 ack 40 ------- 1 3.0 0.0 27 72
- 0.26632 3 0 ack 40 ------- 1 3.0 0.0 27 72
r 0.26816 3 0 ack 40 ------- 1 3.0 0.0 25 68
+ 0.26816 0 3 tcp 1040 ------- 1 0.0 3.0 45 73
- 0.2688 0 3 tcp 1040 ------- 1 0.0 3.0 31 49
r 0.27048 0 3 tcp 1040 ------- 1 0.0 3.0 28 44
+ 0.27048 3 0 ack 40 ------- 1 3.0 0.0 28 74
- 0.27048 3 0 ack 40 ------- 1 3.0 0.0 28 74
r 0.27232 3 0 ack 40 ------- 1 3.0 0.0 26 70
+ 0.27232 0 3 tcp 1040 ------- 1 0.0 3.0 46 75
- 0.27296 0 3 tcp 1040 ------- 1 0.0 3.0 32 50
r 0.27464 0 3 tcp 1040 ------- 1 0.0 3.0 29 46
+ 0.27464 3 0 ack 40 ------- 1 3.0 0.0 29 76
- 0.27464 3 0 ack 40 ------- 1 3.0 0.0 29 76
r 0.27648 3 0 ack 40 ------- 1 3.0 0.0 27 72
+ 0.27648 0 3 tcp 1040 ------- 1 0.0 3.0 47 77
- 0.27712 0 3 tcp 1040 ------- 1 0.0 3.0 33 52
r 0.2788 0 3 tcp 1040 ------- 1 0.0 3.0 30 47
+ 0.2788 3 0 ack 40 ------- 1 3.0 0.0 30 78
- 0.2788 3 0 ack 40 ------- 1 3.0 0.0 30 78
r 0.28064 3 0 ack 40 ------- 1 3.0 0.0 28 74
+ 0.28064 0 3 tcp 1040 ------- 1 0.0 3.0 48 79
- 0.28128 0 3 tcp 1040 ------- 1 0.0 3.0 34 53
r 0.28296 0 3 tcp 1040 ------- 1 0.0 3.0 31 49
+ 0.28296 3 0 ack 40 ------- 1 3.0 0.0 31 80
- 0.28296 3 0 ack 40 ------- 1 3.0 0.0 31 80
r 0.2848 3 0 ack 40 ------- 1 3.0 0.0 29 76
+ 0.2848 0 3 tcp 1040 ------- 1 0.0 3.0 49 81
- 0.28544 0 3 tcp 1040 ------- 1 0.0 3.0 35 55
r 0.28712 0 3 tcp 1040 ------- 1 0.0 3.0 32 50
+ 0.28712 3 0 ack 40 ------- 1 3.0 0.0 32 82
- 0.28712 3 0 ack 40 ------- 1 3.0 0.0 32 82
r 0.28896 3 0 ack 40 ------- 1 3.0 0.0 30 78
+ 0.28896 0 3 tcp 1040 ------- 1 0.0 3.0 50 83
- 0.2896 0 3 tcp 1040 ------- 1 0.0 3.0 36 56
r 0.29128 0 3 tcp 1040 ------- 1 0.0 3.0 33 52
+ 0.29128 3 0 ack 40 ------- 1 3.0 0.0 33 84
- 0.29128 3 0 ack 40 ------- 1 3.0 0.0 33 84
r 0.29312 3 0 ack 40 ------- 1 3.0 0.0 31 80
+ 0.29312 0 3 tcp 1040 ------- 1 0.0 3.0 51 85
- 0.29376 0 3 tcp 1040 ------- 1 0.0 3.0 37 58
r 0.29544 0 3 tcp 1040 ------- 1 0.0 3.0 34 53
+ 0.29544 3 0 ack 40 ------- 1 3.0 0.0 34 86
- 0.29544 3 0 ack 40 ------- 1 3.0 0.0 34 86
r 0.29728 3 0 ack 40 ------- 1 3.0 0.0 32 82
+ 0.29728 0 3 tcp 1040 ------- 1 0.0 3.0 52 87
- 0.29792 0 3 tcp 1040 ------- 1 0.0 3.0 38 59
r 0.2996 0 3 tcp 1040 ------- 1 0.0 3.0 35 55
+ 0.2996 3 0 ack 40 ------- 1 3.0 0.0 35 88
- 0.2996 3 0 ack 40 ------- 1 3.0 0.0 35 88
+ 0.3 1 3 tcp 40 ------- 2 1.0 3.1 0 89
- 0.3 1 3 tcp 40 ------- 2 1.0 3.1 0 89
r 0.30144 3 0 ack 40 ------- 1 3.0 0.0 33 84
+ 0.30144 0 3 tcp 1040 ------- 1 0.0 3.0 53 90
- 0.30208 0 3 tcp 1040 ------- 1 0.0 3.0 39 61
r 0.30376 0 3 tcp 1040 ------- 1 0.0 3.0 36 56
+ 0.30376 3 0 ack 40 ------- 1 3.0 0.0 36 91
- 0.30376 3 0 ack 40 ------- 1 3.0 0.0 36 91
r 0.3056 3 0 ack 40 ------- 1 3.0 0.0 34 86
+ 0.3056 0 3 tcp 1040 ------- 1 0.0 3.0 54 92
- 0.30624 0 3 tcp 1040 ------- 1 0.0 3.0 40 63
r 0.30792 0 3 tcp 1040 ------- 1 0.0 3.0 37 58
+ 0.30792 3 0 ack 40 ------- 1 3.0 0.0 37 93
- 0.30792 3 0 ack 40 ------- 1 3.0 0.0 37 93
r 0.30976 3 0 ack 40 ------- 1 3.0 0.0 35 88
+ 0.30976 0 3 tcp 1040 ------- 1 0.0 3.0 55 94
r 0.31016 1 3 tcp 40 ------- 2 1.0 3.1 0 89
+ 0.31016 3 1 ack 40 ------- 2 3.1 1.0 0 95
- 0.31016 3 1 ack 40 ------- 2 3.1 1.0 0 95
- 0.3104 0 3 tcp 1040 ------- 1 0.0 3.0 41 65
r 0.31208 0 3 tcp 1040 ------- 1 0.0 3.0 38 59
+ 0.31208 3 0 ack 40 ------- 1 3.0 0.0 38 96
- 0.31208 3 0 ack 40 ------- 1 3.0 0.0 38 96
r 0.31392 3 0 ack 40 ------- 1 3.0 0.0 36 91
+ 0.31392 0 3 tcp 1040 ------- 1 0.0 3.0 56 97
- 0.31456 0 3 tcp 1040 ------- 1 0.0 3.0 42 67
r 0.31624 0 3 tcp 1040 ------- 1 0.0 3.0 39 61
+ 0.31624 3 0 ack 40 ------- 1 3.0 0.0 39 98
- 0.31624 3 0 ack 40 ------- 1 3.0 0.0 39 98
r 0.31808 3 0 ack 40 ------- 1 3.0 0.0 37 93
+ 0.31808 0 3 tcp 1040 ------- 1 0.0 3.0 57 99
- 0.31872 0 3 tcp 1040 ------- 1 0.0 3.0 43 69
r 0.32032 3 1 ack 40 ------- 2 3.1 1.0 0 95
+ 0.32032 1 3 tcp 1040 ------- 2 1.0 3.1 1 100
- 0.32032 1 3 tcp 1040 ------- 2 1.0 3.1 1 100
+ 0.32032 1 3 tcp 1040 ------- 2 1.0 3.1 2 101
r 0.3204 0 3 tcp 1040 ------- 1 0.0 3.0 40 63
+ 0.3204 3 0 ack 40 ------- 1 3.0 0.0 40 102
- 0.3204 3 0 ack 40 ------- 1 3.0 0.0 40 102
r 0.32224 3 0 ack 40 ------- 1 3.0 0.0 38 96
+ 0.32224 0 3 tcp 1040 ------- 1 0.0 3.0 58 103
- 0.32288 0 3 tcp 1040 ------- 1 0.0 3.0 44 71
- 0.32448 1 3 tcp 1040 ------- 2 1.0 3.1 2 101
r 0.32456 0 3 tcp 1040 ------- 1 0.0 3.0 41 65
+ 0.32456 3 0 ack 40 ------- 1 3.0 0.0 41 104
- 0.32456 3 0 ack 40 ------- 1 3.0 0.0 41 104
r 0.3264 3 0 ack 40 ------- 1 3.0 0.0 39 98
+ 0.3264 0 3 tcp 1040 ------- 1 0.0 3.0 59 105
- 0.32704 0 3 tcp 1040 ------- 1 0.0 3.0 45 73
r 0.32872 0 3 tcp 1040 ------- 1 0.0 3.0 42 67
+ 0.32872 3 0 ack 40 ------- 1 3.0 0.0 42 106
- 0.32872 3 0 ack 40 ------- 1 3.0 0.0 42 106
r 0.33056 3 0 ack 40 ------- 1 3.0 0.0 40 102
+ 0.33056 0 3 tcp 1040 ------- 1 0.0 3.0 60 107
- 0.3312 0 3 tcp 1040 ------- 1 0.0 3.0 46 75
r 0.33288 0 3 tcp 1040 ------- 1 0.0 3.0 43 69
+ 0.33288 3 0 ack 40 ------- 1 3.0 0.0 43 108
- 0.33288 3 0 ack 40 ------- 1 3.0 0.0 43 108
r 0.33448 1 3 tcp 1040 ------- 2 1.0 3.1 1 100
+ 0.33448 3 1 ack 40 ------- 2 3.1 1.0 1 109
- 0.33448 3 1 ack 40 ------- 2 3.1 1.0 1 109
r 0.33472 3 0 ack 40 ------- 1 3.0 0.0 41 104
+ 0.33472 0 3 tcp 1040 ------- 1 0.0 3.0 61 110
- 0.33536 0 3 tcp 1040 ------- 1 0.0 3.0 47 77
r 0.33704 0 3 tcp 1040 ------- 1 0.0 3.0 44 71
+ 0.33704 3 0 ack 40 ------- 1 3.0 0.0 44 111
- 0.33704 3 0 ack 40 ------- 1 3.0 0.0 44 111
r 0.33864 1 3 tcp 1040 ------- 2 1.0 3.1 2 101
+ 0.33864 3 1 ack 40 ------- 2 3.1 1.0 2 112
- 0.33864 3 1 ack 40 ------- 2 3.1 1.0 2 112
r 0.33888 3 0 ack 40 ------- 1 3.0 0.0 42 106
+ 0.33888 0 3 tcp 1040 ------- 1 0.0 3.0 62 113
- 0.33952 0 3 tcp 1040 ------- 1 0.0 3.0 48 79
r 0.3412 0 3 tcp 1040 ------- 1 0.0 3.0 45 73
+ 0.3412 3 0 ack 40 ------- 1 3.0 0.0 45 114
- 0.3412 3 0 ack 40 ------- 1 3.0 0.0 45 114
r 0.34304 3 0 ack 40 ------- 1 3.0 0.0 43 108
+ 0.34304 0 3 tcp 1040 ------- 1 0.0 3.0 63 115
- 0.34368 0 3 tcp 1040 ------- 1 0.0 3.0 49 81
r 0.34464 3 1 ack 40 ------- 2 3.1 1.0 1 109
+ 0.34464 1 3 tcp 1040 ------- 2 1.0 3.1 3 116
- 0.34464 1 3 tcp 1040 ------- 2 1.0 3.1 3 116
+ 0.34464 1 3 tcp 1040 ------- 2 1.0 3.1 4 117
r 0.34536 0 3 tcp 1040 ------- 1 0.0 3.0 46 75
+ 0.34536 3 0 ack 40 ------- 1 3.0 0.0 46 118
- 0.34536 3 0 ack 40 ------- 1 3.0 0.0 46 118
r 0.3472 3 0 ack 40 ------- 1 3.0 0.0 44 111
+ 0.3472 0 3 tcp 1040 ------- 1 0.0 3.0 64 119
- 0.34784 0 3 tcp 1040 ------- 1 0.0 3.0 50 83
r 0.3488 3 1 ack 40 ------- 2 3.1 1.0 2 112
+ 0.3488 1 3 tcp 1040 ------- 2 1.0 3.1 5 120
+ 0.3488 1 3 tcp 1040 ------- 2 1.0 3.1 6 121
- 0.3488 1 3 tcp 1040 ------- 2 1.0 3.1 4 117
r 0.34952 0 3 tcp 1040 ------- 1 0.0 3.0 47 77
+ 0.34952 3 0 ack 40 ------- 1 3.0 0.0 47 122
- 0.34952 3 0 ack 40 ------- 1 3.0 0.0 47 122
r 0.35136 3 0 ack 40 ------- 1 3.0 0.0 45 114
+ 0.35136 0 3 tcp 1040 ------- 1 0.0 3.0 65 123
- 0.352 0 3 tcp 1040 ------- 1 0.0 3.0 51 85
- 0.35296 1 3 tcp 1040 ------- 2 1.0 3.1 5 120
r 0.35368 0 3 tcp 1040 ------- 1 0.0 3.0 48 79
+ 0.35368 3 0 ack 40 ------- 1 3.0 0.0 48 124
- 0.35368 3 0 ack 40 ------- 1 3.0 0.0 48 124
r 0.35552 3 0 ack 40 ------- 1 3.0 0.0 46 118
+ 0.35552 0 3 tcp 1040 ------- 1 0.0 3.0 66 125
- 0.35616 0 3 tcp 1040 ------- 1 0.0 3.0 52 87
- 0.35712 1 3 tcp 1040 ------- 2 1.0 3.1 6 121
r 0.35784 0 3 tcp 1040 ------- 1 0.0 3.0 49 81
+ 0.35784 3 0 ack 40 ------- 1 3.0 0.0 49 126
- 0.35784 3 0 ack 40 ------- 1 3.0 0.0 49 126
r 0.3588 1 3 tcp 1040 ------- 2 1.0 3.1 3 116
+ 0.3588 3 1 ack 40 ------- 2 3.1 1.0 3 127
- 0.3588 3 1 ack 40 ------- 2 3.1 1.0 3 127
r 0.35968 3 0 ack 40 ------- 1 3.0 0.0 47 122
+ 0.35968 0 3 tcp 1040 ------- 1 0.0 3.0 67 128
- 0.36032 0 3 tcp 1040 ------- 1 0.0 3.0 53 90
r 0.362 0 3 tcp 1040 ------- 1 0.0 3.0 50 83
+ 0.362 3 0 ack 40 ------- 1 3.0 0.0 50 129
- 0.362 3 0 ack 40 ------- 1 3.0 0.0 50 129
r 0.36296 1 3 tcp 1040 ------- 2 1.0 3.1 4 117
+ 0.36296 3 1 ack 40 ------- 2 3.1 1.0 4 130
- 0.36296 3 1 ack 40 ------- 2 3.1 1.0 4 130
r 0.36384 3 0 ack 40 ------- 1 3.0 0.0 48 124
+ 0.36384 0 3 tcp 1040 ------- 1 0.0 3.0 68 131
- 0.36448 0 3 tcp 1040 ------- 1 0.0 3.0 54 92
r 0.36616 0 3 tcp 1040 ------- 1 0.0 3.0 51 85
+ 0.36616 3 0 ack 40 ------- 1 3.0 0.0 51 132
- 0.36616 3 0 ack 40 ------- 1 3.0 0.0 51 132
r 0.36712 1 3 tcp 1040 ------- 2 1.0 3.1 5 120
+ 0.36712 3 1 ack 40 ------- 2 3.1 1.0 5 133
- 0.36712 3 1 ack 40 ------- 2 3.1 1.0 5 133
r 0.368 3 0 ack 40 ------- 1 3.0 0.0 49 126
+ 0.368 0 3 tcp 1040 ------- 1 0.0 3.0 69 134
- 0.36864 0 3 tcp 1040 ------- 1 0.0 3.0 55 94
r 0.36896 3 1 ack 40 ------- 2 3.1 1.0 3 127
+ 0.36896 1 3 tcp 1040 ------- 2 1.0 3.1 7 135
- 0.36896 1 3 tcp 1040 ------- 2 1.0 3.1 7 135
+ 0.36896 1 3 tcp 1040 ------- 2 1.0 3.1 8 136
r 0.37032 0 3 tcp 1040 ------- 1 0.0 3.0 52 87
+ 0.37032 3 0 ack 40 ------- 1 3.0 0.0 52 137
- 0.37032 3 0 ack 40 ------- 1 3.0 0.0 52 137
r 0.37128 1 3 tcp 1040 ------- 2 1.0 3.1 6 121
+ 0.37128 3 1 ack 40 ------- 2 3.1 1.0 6 138
- 0.37128 3 1 ack 40 ------- 2 3.1 1.0 6 138
r 0.37216 3 0 ack 40 ------- 1 3.0 0.0 50 129
+ 0.37216 0 3 tcp 1040 ------- 1 0.0 3.0 70 139
- 0.3728 0 3 tcp 1040 ------- 1 0.0 3.0 56 97
r 0.37312 3 1 ack 40 ------- 2 3.1 1.0 4 130
+ 0.37312 1 3 tcp 1040 ------- 2 1.0 3.1 9 140
+ 0.37312 1 3 tcp 1040 ------- 2 1.0 3.1 10 141
- 0.37312 1 3 tcp 1040 ------- 2 1.0 3.1 8 136
r 0.37448 0 3 tcp 1040 ------- 1 0.0 3.0 53 90
+ 0.37448 3 0 ack 40 ------- 1 3.0 0.0 53 142
- 0.37448 3 0 ack 40 ------- 1 3.0 0.0 53 142
r 0.37632 3 0 ack 40 ------- 1 3.0 0.0 51 132
+ 0.37632 0 3 tcp 1040 ------- 1 0.0 3.0 71 143
- 0.37696 0 3 tcp 1040 ------- 1 0.0 3.0 57 99
r 0.37728 3 1 ack 40 ------- 2 3.1 1.0 5 133
+ 0.37728 1 3 tcp 1040 ------- 2 1.0 3.1 11 144
+ 0.37728 1 3 tcp 1040 ------- 2 1.0 3.1 12 145
- 0.37728 1 3 tcp 1040 ------- 2 1.0 3.1 9 140
r 0.37864 0 3 tcp 1040 ------- 1 0.0 3.0 54 92
+ 0.37864 3 0 ack 40 ------- 1 3.0 0.0 54 146
- 0.37864 3 0 ack 40 ------- 1 3.0 0.0 54 146
r 0.38048 3 0 ack 40 ------- 1 3.0 0.0 52 137
+ 0.38048 0 3 tcp 1040 ------- 1 0.0 3.0 72 147
- 0.38112 0 3 tcp 1040 ------- 1 0.0 3.0 58 103
r 0.38144 3 1 ack 40 ------- 2 3.1 1.0 6 138
+ 0.38144 1 3 tcp 1040 ------- 2 1.0 3.1 13 148
+ 0.38144 1 3 tcp 1040 ------- 2 1.0 3.1 14 149
- 0.38144 1 3 tcp 1040 ------- 2 1.0 3.1 10 141
r 0.3828 0 3 tcp 1040 ------- 1 0.0 3.0 55 94
+ 0.3828 3 0 ack 40 ------- 1 3.0 0.0 55 150
- 0.3828 3 0 ack 40 ------- 1 3.0 0.0 55 150
r 0.38312 1 3 tcp 1040 ------- 2 1.0 3.1 7 135
+ 0.38312 3 1 ack 40 ------- 2 3.1 1.0 7 151
- 0.38312 3 1 ack 40 ------- 2 3.1 1.0 7 151
r 0.38464 3 0 ack 40 ------- 1 3.0 0.0 53 142
+ 0.38464 0 3 tcp 1040 ------- 1 0.0 3.0 73 152
- 0.38528 0 3 tcp 1040 ------- 1 0.0 3.0 59 105
- 0.3856 1 3 tcp 1040 ------- 2 1.0 3.1 11 144
r 0.38696 0 3 tcp 1040 ------- 1 0.0 3.0 56 97
+ 0.38696 3 0 ack 40 ------- 1 3.0 0.0 56 153
- 0.38696 3 0 ack 40 ------- 1 3.0 0.0 56 153
r 0.38728 1 3 tcp 1040 ------- 2 1.0 3.1 8 136
+ 0.38728 3 1 ack 40 ------- 2 3.1 1.0 8 154
- 0.38728 3 1 ack 40 ------- 2 3.1 1.0 8 154
r 0.3888 3 0 ack 40 ------- 1 3.0 0.0 54 146
+ 0.3888 0 3 tcp 1040 ------- 1 0.0 3.0 74 155
- 0.38944 0 3 tcp 1040 ------- 1 0.0 3.0 60 107
- 0.38976 1 3 tcp 1040 ------- 2 1.0 3.1 12 145
r 0.39112 0 3 tcp 1040 ------- 1 0.0 3.0 57 99
+ 0.39112 3 0 ack 40 ------- 1 3.0 0.0 57 156
- 0.39112 3 0 ack 40 ------- 1 3.0 0.0 57 156
r 0.39144 1 3 tcp 1040 ------- 2 1.0 3.1 9 140
+ 0.39144 3 1 ack 40 ------- 2 3.1 1.0 9 157
- 0.39144 3 1 ack 40 ------- 2 3.1 1.0 9 157
r 0.39296 3 0 ack 40 ------- 1 3.0 0.0 55 150
+ 0.39296 0 3 tcp 1040 ------- 1 0.0 3.0 75 158
r 0.39328 3 1 ack 40 ------- 2 3.1 1.0 7 151
+ 0.39328 1 3 tcp 1040 ------- 2 1.0 3.1 15 159
+ 0.39328 1 3 tcp 1040 ------- 2 1.0 3.1 16 160
- 0.3936 0 3 tcp 1040 ------- 1 0.0 3.0 61 110
- 0.39392 1 3 tcp 1040 ------- 2 1.0 3.1 13 148
r 0.39528 0 3 tcp 1040 ------- 1 0.0 3.0 58 103
+ 0.39528 3 0 ack 40 ------- 1 3.0 0.0 58 161
- 0.39528 3 0 ack 40 ------- 1 3.0 0.0 58 161
r 0.3956 1 3 tcp 1040 ------- 2 1.0 3.1 10 141
+ 0.3956 3 1 ack 40 ------- 2 3.1 1.0 10 162
- 0.3956 3 1 ack 40 ------- 2 3.1 1.0 10 162
r 0.39712 3 0 ack 40 ------- 1 3.0 0.0 56 153
+ 0.39712 0 3 tcp 1040 ------- 1 0.0 3.0 76 163
r 0.39744 3 1 ack 40 ------- 2 3.1 1.0 8 154
+ 0.39744 1 3 tcp 1040 ------- 2 1.0 3.1 17 164
+ 0.39744 1 3 tcp 1040 ------- 2 1.0 3.1 18 165
- 0.39776 0 3 tcp 1040 ------- 1 0.0 3.0 62 113
- 0.39808 1 3 tcp 1040 ------- 2 1.0 3.1 14 149
r 0.39944 0 3 tcp 1040 ------- 1 0.0 3.0 59 105
+ 0.39944 3 0 ack 40 ------- 1 3.0 0.0 59 166
- 0.39944 3 0 ack 40 ------- 1 3.0 0.0 59 166
r 0.39976 1 3 tcp 1040 ------- 2 1.0 3.1 11 144
+ 0.39976 3 1 ack 40 ------- 2 3.1 1.0 11 167
- 0.39976 3 1 ack 40 ------- 2 3.1 1.0 11 167
r 0.40128 3 0 ack 40 ------- 1 3.0 0.0 57 156
+ 0.40128 0 3 tcp 1040 ------- 1 0.0 3.0 77 168
r 0.4016 3 1 ack 40 ------- 2 3.1 1.0 9 157
+ 0.4016 1 3 tcp 1040 ------- 2 1.0 3.1 19 169
+ 0.4016 1 3 tcp 1040 ------- 2 1.0 3.1 20 170
- 0.40192 0 3 tcp 1040 ------- 1 0.0 3.0 63 115
- 0.40224 1 3 tcp 1040 ------- 2 1.0 3.1 15 159
r 0.4036 0 3 tcp 1040 ------- 1 0.0 3.0 60 107
+ 0.4036 3 0 ack 40 ------- 1 3.0 0.0 60 171
- 0.4036 3 0 ack 40 ------- 1 3.0 0.0 60 171
r 0.40392 1 3 tcp 1040 ------- 2 1.0 3.1 12 145
+ 0.40392 3 1 ack 40 ------- 2 3.1 1.0 12 172
- 0.40392 3 1 ack 40 ------- 2 3.1 1.0 12 172
r 0.40544 3 0 ack 40 ------- 1 3.0 0.0 58 161
+ 0.40544 0 3 tcp 1040 ------- 1 0.0 3.0 78 173
r 0.40576 3 1 ack 40 ------- 2 3.1 1.0 10 162
+ 0.40576 1 3 tcp 1040 ------- 2 1.0 3.1 21 174
+ 0.40576 1 3 tcp 1040 ------- 2 1.0 3.1 22 175
- 0.40608 0 3 tcp 1040 ------- 1 0.0 3.0 64 119
- 0.4064 1 3 tcp 1040 ------- 2 1.0 3.1 16 160
r 0.40776 0 3 tcp 1040 ------- 1 0.0 3.0 61 110
+ 0.40776 3 0 ack 40 ------- 1 3.0 0.0 61 176
- 0.40776 3 0 ack 40 ------- 1 3.0 0.0 61 176
r 0.40808 1 3 tcp 1040 ------- 2 1.0 3.1 13 148
+ 0.40808 3 1 ack 40 ------- 2 3.1 1.0 13 177
- 0.40808 3 1 ack 40 ------- 2 3.1 1.0 13 177
r 0.4096 3 0 ack 40 ------- 1 3.0 0.0 59 166
+ 0.4096 0 3 tcp 1040 ------- 1 0.0 3.0 79 178
r 0.40992 3 1 ack 40 ------- 2 3.1 1.0 11 167
+ 0.40992 1 3 tcp 1040 ------- 2 1.0 3.1 23 179
+ 0.40992 1 3 tcp 1040 ------- 2 1.0 3.1 24 180
- 0.41024 0 3 tcp 1040 ------- 1 0.0 3.0 65 123
- 0.41056 1 3 tcp 1040 ------- 2 1.0 3.1 17 164
r 0.41192 0 3 tcp 1040 ------- 1 0.0 3.0 62 113
+ 0.41192 3 0 ack 40 ------- 1 3.0 0.0 62 181
- 0.41192 3 0 ack 40 ------- 1 3.0 0.0 62 181
r 0.41224 1 3 tcp 1040 ------- 2 1.0 3.1 14 149
+ 0.41224 3 1 ack 40 ------- 2 3.1 1.0 14 182
- 0.41224 3 1 ack 40 ------- 2 3.1 1.0 14 182
r 0.41376 3 0 ack 40 ------- 1 3.0 0.0 60 171
+ 0.41376 0 3 tcp 1040 ------- 1 0.0 3.0 80 183
r 0.41408 3 1 ack 40 ------- 2 3.1 1.0 12 172
+ 0.41408 1 3 tcp 1040 ------- 2 1.0 3.1 25 184
+ 0.41408 1 3 tcp 1040 ------- 2 1.0 3.1 26 185
- 0.4144 0 3 tcp 1040 ------- 1 0.0 3.0 66 125
- 0.41472 1 3 tcp 1040 ------- 2 1.0 3.1 18 165
r 0.41608 0 3 tcp 1040 ------- 1 0.0 3.0 63 115
+ 0.41608 3 0 ack 40 ------- 1 3.0 0.0 63 186
- 0.41608 3 0 ack 40 ------- 1 3.0 0.0 63 186
r 0.4164 1 3 tcp 1040 ------- 2 1.0 3.1 15 159
+ 0.4164 3 1 ack 40 ------- 2 3.1 1.0 15 187
- 0.4164 3 1 ack 40 ------- 2 3.1 1.0 15 187
r 0.41792 3 0 ack 40 ------- 1 3.0 0.0 61 176
+ 0.41792 0 3 tcp 1040 ------- 1 0.0 3.0 81 188
r 0.41824 3 1 ack 40 ------- 2 3.1 1.0 13 177
+ 0.41824 1 3 tcp 1040 ------- 2 1.0 3.1 27 189
+ 0.41824 1 3 tcp 1040 ------- 2 1.0 3.1 28 190
- 0.41856 0 3 tcp 1040 ------- 1 0.0 3.0 67 128
- 0.41888 1 3 tcp 1040 ------- 2 1.0 3.1 19 169
r 0.42024 0 3 tcp 1040 ------- 1 0.0 3.0 64 119
+ 0.42024 3 0 ack 40 ------- 1 3.0 0.0 64 191
- 0.42024 3 0 ack 40 ------- 1 3.0 0.0 64 191
r 0.42056 1 3 tcp 1040 ------- 2 1.0 3.1 16 160
+ 0.42056 3 1 ack 40 ------- 2 3.1 1.0 16 192
- 0.42056 3 1 ack 40 ------- 2 3.1 1.0 16 192
r 0.42208 3 0 ack 40 ------- 1 3.0 0.0 62 181
+ 0.42208 0 3 tcp 1040 ------- 1 0.0 3.0 82 193
r 0.4224 3 1 ack 40 ------- 2 3.1 1.0 14 182
+ 0.4224 1 3 tcp 1040 ------- 2 1.0 3.1 29 194
+ 0.4224 1 3 tcp 1040 ------- 2 1.0 3.1 30 195
- 0.42272 0 3 tcp 1040 ------- 1 0.0 3.0 68 131
- 0.42304 1 3 tcp 1040 ------- 2 1.0 3.1 20 170
r 0.4244 0 3 tcp 1040 ------- 1 0.0 3.0 65 123
+ 0.4244 3 0 ack 40 ------- 1 3.0 0.0 65 196
- 0.4244 3 0 ack 40 ------- 1 3.0 0.0 65 196
r 0.42472 1 3 tcp 1040 ------- 2 1.0 3.1 17 164
+ 0.42472 3 1 ack 40 ------- 2 3.1 1.0 17 197
- 0.42472 3 1 ack 40 ------- 2 3.1 1.0 17 197
r 0.42624 3 0 ack 40 ------- 1 3.0 0.0 63 186
+ 0.42624 0 3 tcp 1040 ------- 1 0.0 3.0 83 198
r 0.42656 3 1 ack 40 ------- 2 3.1 1.0 15 187
+ 0.42656 1 3 tcp 1040 ------- 2 1.0 3.1 31 199
+ 0.42656 1 3 tcp 1040 ------- 2 1.0 3.1 32 200
- 0.42688 0 3 tcp 1040 ------- 1 0.0 3.0 69 134
- 0.4272 1 3 tcp 1040 ------- 2 1.0 3.1 21 174
r 0.42856 0 3 tcp 1040 ------- 1 0.0 3.0 66 125
+ 0.42856 3 0 ack 40 ------- 1 3.0 0.0 66 201
- 0.42856 3 0 ack 40 ------- 1 3.0 0.0 66 201
r 0.42888 1 3 tcp 1040 ------- 2 1.0 3.1 18 165
+ 0.42888 3 1 ack 40 ------- 2 3.1 1.0 18 202
- 0.42888 3 1 ack 40 ------- 2 3.1 1.0 18 202
r 0.4304 3 0 ack 40 ------- 1 3.0 0.0 64 191
+ 0.4304 0 3 tcp 1040 ------- 1 0.0 3.0 84 203
r 0.43072 3 1 ack 40 ------- 2 3.1 1.0 16 192
+ 0.43072 1 3 tcp 1040 ------- 2 1.0 3.1 33 204
+ 0.43072 1 3 tcp 1040 ------- 2 1.0 3.1 34 205
- 0.43104 0 3 tcp 1040 ------- 1 0.0 3.0 70 139
- 0.43136 1 3 tcp 1040 ------- 2 1.0 3.1 22 175
r 0.43272 0 3 tcp 1040 ------- 1 0.0 3.0 67 128
+ 0.43272 3 0 ack 40 ------- 1 3.0 0.0 67 206
- 0.43272 3 0 ack 40 ------- 1 3.0 0.0 67 206
r 0.43304 1 3 tcp 1040 ------- 2 1.0 3.1 19 169
+ 0.43304 3 1 ack 40 ------- 2 3.1 1.0 19 207
- 0.43304 3 1 ack 40 ------- 2 3.1 1.0 19 207
r 0.43456 3 0 ack 40 ------- 1 3.0 0.0 65 196
+ 0.43456 0 3 tcp 1040 ------- 1 0.0 3.0 85 208
r 0.43488 3 1 ack 40 ------- 2 3.1 1.0 17 197
+ 0.43488 1 3 tcp 1040 ------- 2 1.0 3.1 35 209
+ 0.43488 1 3 tcp 1040 ------- 2 1.0 3.1 36 210
- 0.4352 0 3 tcp 1040 ------- 1 0.0 3.0 71 143
- 0.43552 1 3 tcp 1040 ------- 2 1.0 3.1 23 179
r 0.43688 0 3 tcp 1040 ------- 1 0.0 3.0 68 131
+ 0.43688 3 0 ack 40 ------- 1 3.0 0.0 68 211
- 0.43688 3 0 ack 40 ------- 1 3.0 0.0 68 211
r 0.4372 1 3 tcp 1040 ------- 2 1.0 3.1 20 170
+ 0.4372 3 1 ack 40 ------- 2 3.1 1.0 20 212
- 0.4372 3 1 ack 40 ------- 2 3.1 1.0 20 212
r 0.43872 3 0 ack 40 ------- 1 3.0 0.0 66 201
+ 0.43872 0 3 tcp 1040 ------- 1 0.0 3.0 86 213
r 0.43904 3 1 ack 40 ------- 2 3.1 1.0 18 202
+ 0.43904 1 3 tcp 1040 ------- 2 1.0 3.1 37 214
+ 0.43904 1 3 tcp 1040 ------- 2 1.0 3.1 38 215
- 0.43936 0 3 tcp 1040 ------- 1 0.0 3.0 72 147
- 0.43968 1 3 tcp 1040 ------- 2 1.0 3.1 24 180
r 0.44104 0 3 tcp 1040 ------- 1 0.0 3.0 69 134
+ 0.44104 3 0 ack 40 ------- 1 3.0 0.0 69 216
- 0.44104 3 0 ack 40 ------- 1 3.0 0.0 69 216
r 0.44136 1 3 tcp 1040 ------- 2 1.0 3.1 21 174
+ 0.44136 3 1 ack 40 ------- 2 3.1 1.0 21 217
- 0.44136 3 1 ack 40 ------- 2 3.1 1.0 21 217
r 0.44288 3 0 ack 40 ------- 1 3.0 0.0 67 206
+ 0.44288 0 3 tcp 1040 ------- 1 0.0 3.0 87 218
r 0.4432 3 1 ack 40 ------- 2 3.1 1.0 19 207
+ 0.4432 1 3 tcp 1040 ------- 2 1.0 3.1 39 219
- 0.44352 0 3 tcp 1040 ------- 1 0.0 3.0 73 152
- 0.44384 1 3 tcp 1040 ------- 2 1.0 3.1 25 184
r 0.4452 0 3 tcp 1040 ------- 1 0.0 3.0 70 139
+ 0.4452 3 0 ack 40 ------- 1 3.0 0.0 70 220
- 0.4452 3 0 ack 40 ------- 1 3.0 0.0 70 220
r 0.44552 1 3 tcp 1040 ------- 2 1.0 3.1 22 175
+ 0.44552 3 1 ack 40 ------- 2 3.1 1.0 22 221
- 0.44552 3 1 ack 40 ------- 2 3.1 1.0 22 221
r 0.44704 3 0 ack 40 ------- 1 3.0 0.0 68 211
+ 0.44704 0 3 tcp 1040 ------- 1 0.0 3.0 88 222
r 0.44736 3 1 ack 40 ------- 2 3.1 1.0 20 212
+ 0.44736 1 3 tcp 1040 ------- 2 1.0 3.1 40 223
- 0.44768 0 3 tcp 1040 ------- 1 0.0 3.0 74 155
- 0.448 1 3 tcp 1040 ------- 2 1.0 3.1 26 185
r 0.44936 0 3 tcp 1040 ------- 1 0.0 3.0 71 143
+ 0.44936 3 0 ack 40 ------- 1 3.0 0.0 71 224
- 0.44936 3 0 ack 40 ------- 1 3.0 0.0 71 224
r 0.44968 1 3 tcp 1040 ------- 2 1.0 3.1 23 179
+ 0.44968 3 1 ack 40 ------- 2 3.1 1.0 23 225
- 0.44968 3 1 ack 40 ------- 2 3.1 1.0 23 225
r 0.4512 3 0 ack 40 ------- 1 3.0 0.0 69 216
+ 0.4512 0 3 tcp 1040 ------- 1 0.0 3.0 89 226
r 0.45152 3 1 ack 40 ------- 2 3.1 1.0 21 217
+ 0.45152 1 3 tcp 1040 ------- 2 1.0 3.1 41 227
- 0.45184 0 3 tcp 1040 ------- 1 0.0 3.0 75 158
- 0.45216 1 3 tcp 1040 ------- 2 1.0 3.1 27 189
r 0.45352 0 3 tcp 1040 ------- 1 0.0 3.0 72 147
+ 0.45352 3 0 ack 40 ------- 1 3.0 0.0 72 228
- 0.45352 3 0 ack 40 ------- 1 3.0 0.0 72 228
r 0.45384 1 3 tcp 1040 ------- 2 1.0 3.1 24 180
+ 0.45384 3 1 ack 40 ------- 2 3.1 1.0 24 229
- 0.45384 3 1 ack 40 ------- 2 3.1 1.0 24 229
r 0.45536 3 0 ack 40 ------- 1 3.0 0.0 70 220
+ 0.45536 0 3 tcp 1040 ------- 1 0.0 3.0 90 230
r 0.45568 3 1 ack 40 ------- 2 3.1 1.0 22 221
+ 0.45568 1 3 tcp 1040 ------- 2 1.0 3.1 42 231
- 0.456 0 3 tcp 1040 ------- 1 0.0 3.0 76 163
- 0.45632 1 3 tcp 1040 ------- 2 1.0 3.1 28 190
r 0.45768 0 3 tcp 1040 ------- 1 0.0 3.0 73 152
+ 0.45768 3 0 ack 40 ------- 1 3.0 0.0 73 232
- 0.45768 3 0 ack 40 ------- 1 3.0 0.0 73 232
r 0.458 1 3 tcp 1040 ------- 2 1.0 3.1 25 184
+ 0.458 3 1 ack 40 ------- 2 3.1 1.0 25 233
- 0.458 3 1 ack 40 ------- 2 3.1 1.0 25 233
r 0.45952 3 0 ack 40 ------- 1 3.0 0.0 71 224
+ 0.45952 0 3 tcp 1040 ------- 1 0.0 3.0 91 234
r 0.45984 3 1 ack 40 ------- 2 3.1 1.0 23 225
+ 0.45984 1 3 tcp 1040 ------- 2 1.0 3.1 43 235
- 0.46016 0 3 tcp 1040 ------- 1 0.0 3.0 77 168
- 0.46048 1 3 tcp 1040 ------- 2 1.0 3.1 29 194
r 0.46184 0 3 tcp 1040 ------- 1 0.0 3.0 74 155
+ 0.46184 3 0 ack 40 ------- 1 3.0 0.0 74 236
- 0.46184 3 0 ack 40 ------- 1 3.0 0.0 74 236
r 0.46216 1 3 tcp 1040 ------- 2 1.0 3.1 26 185
+ 0.46216 3 1 ack 40 ------- 2 3.1 1.0 26 237
- 0.46216 3 1 ack 40 ------- 2 3.1 1.0 26 237
r 0.46368 3 0 ack 40 ------- 1 3.0 0.0 72 228
+ 0.46368 0 3 tcp 1040 ------- 1 0.0 3.0 92 238
r 0.464 3 1 ack 40 ------- 2 3.1 1.0 24 229
+ 0.464 1 3 tcp 1040 ------- 2 1.0 3.1 44 239