V -t * -v 1.0a5 -a 0
A -t * -n 1 -p 0 -o 0x7fffffff -c 30 -a 1
A -t * -h 1 -m 1073741823 -s 0
c -t * -i 1 -n Blue
c -t * -i 2 -n Red
n -t * -a 4 -s 4 -S UP -v circle -c black -i black
n -t * -a 0 -s 0 -S UP -v circle -c black -i black
n -t * -a 5 -s 5 -S UP -v circle -c black -i black
n -t * -a 1 -s 1 -S UP -v circle -c black -i black
n -t * -a 2 -s 2 -S UP -v circle -c black -i black
n -t * -a 3 -s 3 -S UP -v circle -c black -i black
X -t * -n 6 -r 10Mb -D 500ms -o left
L -t * -s 6 -d 0 -o up
L -t * -s 6 -d 1 -o down
L -t * -s 6 -d 2 -o up
L -t * -s 6 -d 3 -o down
L -t * -s 6 -d 4 -o up
L -t * -s 6 -d 5 -o down
h -t 0.1 -s 2 -d 6 -p cbr -e 1000 -c 2 -i 0 -a 2 -x {2.0 3.0 0 ------- null}
h -t 0.1008 -s 2 -d 6 -p cbr -e 1000 -c 2 -i 1 -a 2 -x {2.0 3.0 1 ------- null}
h -t 0.1016 -s 2 -d 6 -p cbr -e 1000 -c 2 -i 2 -a 2 -x {2.0 3.0 2 ------- null}
h -t 0.1024 -s 2 -d 6 -p cbr -e 1000 -c 2 -i 3 -a 2 -x {2.0 3.0 3 ------- null}
h -t 0.1032 -s 2 -d 6 -p cbr -e 1000 -c 2 -i 4 -a 2 -x {2.0 3.0 4 ------- null}
h -t 0.104 -s 2 -d 6 -p cbr -e 1000 -c 2 -i 5 -a 2 -x {2.0 3.0 5 ------- null}
h -t 0.1048 -s 2 -d 6 -p cbr -e 1000 -c 2 -i 6 -a 2 -x {2.0 3.0 6 ------- null}
h -t 0.1056 -s 2 -d 6 -p cbr -e 1000 -c 2 -i 7 -a 2 -x {2.0 3.0 7 ------- null}
h -t 0.1064 -s 2 -d 6 -p cbr -e 1000 -c 2 -i 8 -a 2 -x {2.0 3.0 8 ------- null}
h -t 0.1072 -s 2 -d 6 -p cbr -e 1000 -c 2 -i 9 -a 2 -x {2.0 3.0 9 ------- null}
h -t 0.108 -s 2 -d 6 -p cbr -e 1000 -c 2 -i 10 -a 2 -x {2.0 3.0 10 ------- null}
h -t 0.1088 -s 2 -d 6 -p cbr -e 1000 -c 2 -i 11 -a 2 -x {2.0 3.0 11 ------- null}
h -t 0.1096 -s 2 -d 6 -p cbr -e 1000 -c 2 -i 12 -a 2 -x {2.0 3.0 12 ------- null}
h -t 0.1104 -s 2 -d 6 -p cbr -e 1000 -c 2 -i 13 -a 2 -x {2.0 3.0 13 ------- null}
h -t 0.1112 -s 2 -d 6 -p cbr -e 1000 -c 2 -i 14 -a 2 -x {2.0 3.0 14 ------- null}
h -t 0.112 -s 2 -d 6 -p cbr -e 1000 -c 2 -i 15 -a 2 -x {2.0 3.0 15 ------- null}
h -t 0.1128 -s 2 -d 6 -p cbr -e 1000 -c 2 -i 16 -a 2 -x {2.0 3.0 16 ------- null}
h -t 0.1136 -s 2 -d 6 -p cbr -e 1000 -c 2 -i 17 -a 2 -x {2.0 3.0 17 ------- null}
h -t 0.1144 -s 2 -d 6 -p cbr -e 1000 -c 2 -i 18 -a 2 -x {2.0 3.0 18 ------- null}
h -t 0.1152 -s 2 -d 6 -p cbr -e 1000 -c 2 -i 19 -a 2 -x {2.0 3.0 19 ------- null}
h -t 0.116 -s 2 -d 6 -p cbr -e 1000 -c 2 -i 20 -a 2 -x {2.0 3.0 20 ------- null}
h -t 0.1168 -s 2 -d 6 -p cbr -e 1000 -c 2 -i 21 -a 2 -x {2.0 3.0 21 ------- null}
h -t 0.1176 -s 2 -d 6 -p cbr -e 1000 -c 2 -i 22 -a 2 -x {2.0 3.0 22 ------- null}
h -t 0.1184 -s 2 -d 6 -p cbr -e 1000 -c 2 -i 23 -a 2 -x {2.0 3.0 23 ------- null}
h -t 0.1192 -s 2 -d 6 -p cbr -e 1000 -c 2 -i 24 -a 2 -x {2.0 3.0 24 ------- null}
h -t 0.12 -s 2 -d 6 -p cbr -e 1000 -c 2 -i 25 -a 2 -x {2.0 3.0 25 ------- null}
h -t 0.1208 -s 2 -d 6 -p cbr -e 1000 -c 2 -i 26 -a 2 -x {2.0 3.0 26 ------- null}
h -t 0.1216 -s 2 -d 6 -p cbr -e 1000 -c 2 -i 27 -a 2 -x {2.0 3.0 27 ------- null}
h -t 0.1224 -s 2 -d 6 -p cbr -e 1000 -c 2 -i 28 -a 2 -x {2.0 3.0 28 ------- null}
h -t 0.1232 -s 2 -d 6 -p cbr -e 1000 -c 2 -i 29 -a 2 -x {2.0 3.0 29 ------- null}
h -t 0.124 -s 2 -d 6 -p cbr -e 1000 -c 2 -i 30 -a 2 -x {2.0 3.0 30 ------- null}
h -t 0.1248 -s 2 -d 6 -p cbr -e 1000 -c 2 -i 31 -a 2 -x {2.0 3.0 31 ------- null}
h -t 0.1256 -s 2 -d 6 -p cbr -e 1000 -c 2 -i 32 -a 2 -x {2.0 3.0 32 ------- null}
h -t 0.1264 -s 2 -d 6 -p cbr -e 1000 -c 2 -i 33 -a 2 -x {2.0 3.0 33 ------- null}
h -t 0.1272 -s 2 -d 6 -p cbr -e 1000 -c 2 -i 34 -a 2 -x {2.0 3.0 34 ------- null}
h -t 0.128 -s 2 -d 6 -p cbr -e 1000 -c 2 -i 35 -a 2 -x {2.0 3.0 35 ------- null}
h -t 0.1288 -s 2 -d 6 -p cbr -e 1000 -c 2 -i 36 -a 2 -x {2.0 3.0 36 ------- null}
h -t 0.1296 -s 2 -d 6 -p cbr -e 1000 -c 2 -i 37 -a 2 -x {2.0 3.0 37 ------- null}
h -t 0.1304 -s 2 -d 6 -p cbr -e 1000 -c 2 -i 38 -a 2 -x {2.0 3.0 38 ------- null}
h -t 0.1312 -s 2 -d 6 -p cbr -e 1000 -c 2 -i 39 -a 2 -x {2.0 3.0 39 ------- null}
h -t 0.132 -s 2 -d 6 -p cbr -e 1000 -c 2 -i 40 -a 2 -x {2.0 3.0 40 ------- null}
h -t 0.1328 -s 2 -d 6 -p cbr -e 1000 -c 2 -i 41 -a 2 -x {2.0 3.0 41 ------- null}
h -t 0.1336 -s 2 -d 6 -p cbr -e 1000 -c 2 -i 42 -a 2 -x {2.0 3.0 42 ------- null}
h -t 0.1344 -s 2 -d 6 -p cbr -e 1000 -c 2 -i 43 -a 2 -x {2.0 3.0 43 ------- null}
h -t 0.1352 -s 2 -d 6 -p cbr -e 1000 -c 2 -i 44 -a 2 -x {2.0 3.0 44 ------- null}
h -t 0.136 -s 2 -d 6 -p cbr -e 1000 -c 2 -i 45 -a 2 -x {2.0 3.0 45 ------- null}
h -t 0.1368 -s 2 -d 6 -p cbr -e 1000 -c 2 -i 46 -a 2 -x {2.0 3.0 46 ------- null}
h -t 0.1376 -s 2 -d 6 -p cbr -e 1000 -c 2 -i 47 -a 2 -x {2.0 3.0 47 ------- null}
h -t 0.1384 -s 2 -d 6 -p cbr -e 1000 -c 2 -i 48 -a 2 -x {2.0 3.0 48 ------- null}
h -t 0.1392 -s 2 -d 6 -p cbr -e 1000 -c 2 -i 49 -a 2 -x {2.0 3.0 49 ------- null}
h -t 0.14 -s 2 -d 6 -p cbr -e 1000 -c 2 -i 50 -a 2 -x {2.0 3.0 50 ------- null}
h -t 0.1408 -s 2 -d 6 -p cbr -e 1000 -c 2 -i 51 -a 2 -x {2.0 3.0 51 ------- null}
h -t 0.1416 -s 2 -d 6 -p cbr -e 1000 -c 2 -i 52 -a 2 -x {2.0 3.0 52 ------- null}
h -t 0.1424 -s 2 -d 6 -p cbr -e 1000 -c 2 -i 53 -a 2 -x {2.0 3.0 53 ------- null}
h -t 0.1432 -s 2 -d 6 -p cbr -e 1000 -c 2 -i 54 -a 2 -x {2.0 3.0 54 ------- null}
h -t 0.144 -s 2 -d 6 -p cbr -e 1000 -c 2 -i 55 -a 2 -x {2.0 3.0 55 ------- null}
h -t 0.1448 -s 2 -d 6 -p cbr -e 1000 -c 2 -i 56 -a 2 -x {2.0 3.0 56 ------- null}
h -t 0.1456 -s 2 -d 6 -p cbr -e 1000 -c 2 -i 57 -a 2 -x {2.0 3.0 57 ------- null}
h -t 0.1464 -s 2 -d 6 -p cbr -e 1000 -c 2 -i 58 -a 2 -x {2.0 3.0 58 ------- null}
h -t 0.1472 -s 2 -d 6 -p cbr -e 1000 -c 2 -i 59 -a 2 -x {2.0 3.0 59 ------- null}
h -t 0.148 -s 2 -d 6 -p cbr -e 1000 -c 2 -i 60 -a 2 -x {2.0 3.0 60 ------- null}
h -t 0.1488 -s 2 -d 6 -p cbr -e 1000 -c 2 -i 61 -a 2 -x {2.0 3.0 61 ------- null}
h -t 0.1496 -s 2 -d 6 -p cbr -e 1000 -c 2 -i 62 -a 2 -x {2.0 3.0 62 ------- null}
h -t 0.1504 -s 2 -d 6 -p cbr -e 1000 -c 2 -i 63 -a 2 -x {2.0 3.0 63 ------- null}
h -t 0.1512 -s 2 -d 6 -p cbr -e 1000 -c 2 -i 64 -a 2 -x {2.0 3.0 64 ------- null}
h -t 0.152 -s 2 -d 6 -p cbr -e 1000 -c 2 -i 65 -a 2 -x {2.0 3.0 65 ------- null}
h -t 0.1528 -s 2 -d 6 -p cbr -e 1000 -c 2 -i 66 -a 2 -x {2.0 3.0 66 ------- null}
h -t 0.1536 -s 2 -d 6 -p cbr -e 1000 -c 2 -i 67 -a 2 -x {2.0 3.0 67 ------- null}
h -t 0.1544 -s 2 -d 6 -p cbr -e 1000 -c 2 -i 68 -a 2 -x {2.0 3.0 68 ------- null}
h -t 0.1552 -s 2 -d 6 -p cbr -e 1000 -c 2 -i 69 -a 2 -x {2.0 3.0 69 ------- null}
h -t 0.156 -s 2 -d 6 -p cbr -e 1000 -c 2 -i 70 -a 2 -x {2.0 3.0 70 ------- null}
h -t 0.1568 -s 2 -d 6 -p cbr -e 1000 -c 2 -i 71 -a 2 -x {2.0 3.0 71 ------- null}
h -t 0.1576 -s 2 -d 6 -p cbr -e 1000 -c 2 -i 72 -a 2 -x {2.0 3.0 72 ------- null}
h -t 0.1584 -s 2 -d 6 -p cbr -e 1000 -c 2 -i 73 -a 2 -x {2.0 3.0 73 ------- null}
h -t 0.1592 -s 2 -d 6 -p cbr -e 1000 -c 2 -i 74 -a 2 -x {2.0 3.0 74 ------- null}
h -t 0.16 -s 2 -d 6 -p cbr -e 1000 -c 2 -i 75 -a 2 -x {2.0 3.0 75 ------- null}
h -t 0.1608 -s 2 -d 6 -p cbr -e 1000 -c 2 -i 76 -a 2 -x {2.0 3.0 76 ------- null}
h -t 0.1616 -s 2 -d 6 -p cbr -e 1000 -c 2 -i 77 -a 2 -x {2.0 3.0 77 ------- null}
h -t 0.1624 -s 2 -d 6 -p cbr -e 1000 -c 2 -i 78 -a 2 -x {2.0 3.0 78 ------- null}
h -t 0.1632 -s 2 -d 6 -p cbr -e 1000 -c 2 -i 79 -a 2 -x {2.0 3.0 79 ------- null}
h -t 0.164 -s 2 -d 6 -p cbr -e 1000 -c 2 -i 80 -a 2 -x {2.0 3.0 80 ------- null}
h -t 0.1648 -s 2 -d 6 -p cbr -e 1000 -c 2 -i 81 -a 2 -x {2.0 3.0 81 ------- null}
h -t 0.1656 -s 2 -d 6 -p cbr -e 1000 -c 2 -i 82 -a 2 -x {2.0 3.0 82 ------- null}
h -t 0.1664 -s 2 -d 6 -p cbr -e 1000 -c 2 -i 83 -a 2 -x {2.0 3.0 83 ------- null}
h -t 0.1672 -s 2 -d 6 -p cbr -e 1000 -c 2 -i 84 -a 2 -x {2.0 3.0 84 ------- null}
h -t 0.168 -s 2 -d 6 -p cbr -e 1000 -c 2 -i 85 -a 2 -x {2.0 3.0 85 ------- null}
h -t 0.1688 -s 2 -d 6 -p cbr -e 1000 -c 2 -i 86 -a 2 -x {2.0 3.0 86 ------- null}
h -t 0.1696 -s 2 -d 6 -p cbr -e 1000 -c 2 -i 87 -a 2 -x {2.0 3.0 87 ------- null}
h -t 0.1704 -s 2 -d 6 -p cbr -e 1000 -c 2 -i 88 -a 2 -x {2.0 3.0 88 ------- null}
h -t 0.1712 -s 2 -d 6 -p cbr -e 1000 -c 2 -i 89 -a 2 -x {2.0 3.0 89 ------- null}
h -t 0.172 -s 2 -d 6 -p cbr -e 1000 -c 2 -i 90 -a 2 -x {2.0 3.0 90 ------- null}
h -t 0.1728 -s 2 -d 6 -p cbr -e 1000 -c 2 -i 91 -a 2 -x {2.0 3.0 91 ------- null}
h -t 0.1736 -s 2 -d 6 -p cbr -e 1000 -c 2 -i 92 -a 2 -x {2.0 3.0 92 ------- null}
h -t 0.1744 -s 2 -d 6 -p cbr -e 1000 -c 2 -i 93 -a 2 -x {2.0 3.0 93 ------- null}
h -t 0.1752 -s 2 -d 6 -p cbr -e 1000 -c 2 -i 94 -a 2 -x {2.0 3.0 94 ------- null}
h -t 0.176 -s 2 -d 6 -p cbr -e 1000 -c 2 -i 95 -a 2 -x {2.0 3.0 95 ------- null}
h -t 0.1768 -s 2 -d 6 -p cbr -e 1000 -c 2 -i 96 -a 2 -x {2.0 3.0 96 ------- null}
h -t 0.1776 -s 2 -d 6 -p cbr -e 1000 -c 2 -i 97 -a 2 -x {2.0 3.0 97 ------- null}
h -t 0.1784 -s 2 -d 6 -p cbr -e 1000 -c 2 -i 98 -a 2 -x {2.0 3.0 98 ------- null}
h -t 0.1792 -s 2 -d 6 -p cbr -e 1000 -c 2 -i 99 -a 2 -x {2.0 3.0 99 ------- null}
h -t 0.18 -s 2 -d 6 -p cbr -e 1000 -c 2 -i 100 -a 2 -x {2.0 3.0 100 ------- null}
h -t 0.1808 -s 2 -d 6 -p cbr -e 1000 -c 2 -i 101 -a 2 -x {2.0 3.0 101 ------- null}
h -t 0.1816 -s 2 -d 6 -p cbr -e 1000 -c 2 -i 102 -a 2 -x {2.0 3.0 102 ------- null}
h -t 0.1824 -s 2 -d 6 -p cbr -e 1000 -c 2 -i 103 -a 2 -x {2.0 3.0 103 ------- null}
h -t 0.1832 -s 2 -d 6 -p cbr -e 1000 -c 2 -i 104 -a 2 -x {2.0 3.0 104 ------- null}
h -t 0.183999999999999 -s 2 -d 6 -p cbr -e 1000 -c 2 -i 105 -a 2 -x {2.0 3.0 105 ------- null}
h -t 0.184799999999999 -s 2 -d 6 -p cbr -e 1000 -c 2 -i 106 -a 2 -x {2.0 3.0 106 ------- null}
h -t 0.185599999999999 -s 2 -d 6 -p cbr -e 1000 -c 2 -i 107 -a 2 -x {2.0 3.0 107 ------- null}
h -t 0.186399999999999 -s 2 -d 6 -p cbr -e 1000 -c 2 -i 108 -a 2 -x {2.0 3.0 108 ------- null}
h -t 0.187199999999999 -s 2 -d 6 -p cbr -e 1000 -c 2 -i 109 -a 2 -x {2.0 3.0 109 ------- null}
h -t 0.187999999999999 -s 2 -d 6 -p cbr -e 1000 -c 2 -i 110 -a 2 -x {2.0 3.0 110 ------- null}
h -t 0.188799999999999 -s 2 -d 6 -p cbr -e 1000 -c 2 -i 111 -a 2 -x {2.0 3.0 111 ------- null}
h -t 0.189599999999999 -s 2 -d 6 -p cbr -e 1000 -c 2 -i 112 -a 2 -x {2.0 3.0 112 ------- null}
h -t 0.190399999999999 -s 2 -d 6 -p cbr -e 1000 -c 2 -i 113 -a 2 -x {2.0 3.0 113 ------- null}
h -t 0.191199999999999 -s 2 -d 6 -p cbr -e 1000 -c 2 -i 114 -a 2 -x {2.0 3.0 114 ------- null}
h -t 0.191999999999999 -s 2 -d 6 -p cbr -e 1000 -c 2 -i 115 -a 2 -x {2.0 3.0 115 ------- null}
h -t 0.192799999999999 -s 2 -d 6 -p cbr -e 1000 -c 2 -i 116 -a 2 -x {2.0 3.0 116 ------- null}
h -t 0.193599999999999 -s 2 -d 6 -p cbr -e 1000 -c 2 -i 117 -a 2 -x {2.0 3.0 117 ------- null}
h -t 0.194399999999999 -s 2 -d 6 -p cbr -e 1000 -c 2 -i 118 -a 2 -x {2.0 3.0 118 ------- null}
h -t 0.195199999999999 -s 2 -d 6 -p cbr -e 1000 -c 2 -i 119 -a 2 -x {2.0 3.0 119 ------- null}
h -t 0.195999999999999 -s 2 -d 6 -p cbr -e 1000 -c 2 -i 120 -a 2 -x {2.0 3.0 120 ------- null}
h -t 0.196799999999999 -s 2 -d 6 -p cbr -e 1000 -c 2 -i 121 -a 2 -x {2.0 3.0 121 ------- null}
h -t 0.197599999999999 -s 2 -d 6 -p cbr -e 1000 -c 2 -i 122 -a 2 -x {2.0 3.0 122 ------- null}
h -t 0.198399999999999 -s 2 -d 6 -p cbr -e 1000 -c 2 -i 123 -a 2 -x {2.0 3.0 123 ------- null}
h -t 0.199199999999999 -s 2 -d 6 -p cbr -e 1000 -c 2 -i 124 -a 2 -x {2.0 3.0 124 ------- null}
h -t 0.199999999999999 -s 2 -d 6 -p cbr -e 1000 -c 2 -i 125 -a 2 -x {2.0 3.0 125 ------- null}
h -t 0.200799999999999 -s 2 -d 6 -p cbr -e 1000 -c 2 -i 126 -a 2 -x {2.0 3.0 126 ------- null}
h -t 0.201599999999999 -s 2 -d 6 -p cbr -e 1000 -c 2 -i 127 -a 2 -x {2.0 3.0 127 ------- null}
h -t 0.202399999999999 -s 2 -d 6 -p cbr -e 1000 -c 2 -i 128 -a 2 -x {2.0 3.0 128 ------- null}
h -t 0.203199999999999 -s 2 -d 6 -p cbr -e 1000 -c 2 -i 129 -a 2 -x {2.0 3.0 129 ------- null}
h -t 0.203999999999999 -s 2 -d 6 -p cbr -e 1000 -c 2 -i 130 -a 2 -x {2.0 3.0 130 ------- null}
h -t 0.204799999999999 -s 2 -d 6 -p cbr -e 1000 -c 2 -i 131 -a 2 -x {2.0 3.0 131 ------- null}
h -t 0.205599999999999 -s 2 -d 6 -p cbr -e 1000 -c 2 -i 132 -a 2 -x {2.0 3.0 132 ------- null}
h -t 0.206399999999999 -s 2 -d 6 -p cbr -e 1000 -c 2 -i 133 -a 2 -x {2.0 3.0 133 ------- null}
h -t 0.207199999999999 -s 2 -d 6 -p cbr -e 1000 -c 2 -i 134 -a 2 -x {2.0 3.0 134 ------- null}
h -t 0.207999999999999 -s 2 -d 6 -p cbr -e 1000 -c 2 -i 135 -a 2 -x {2.0 3.0 135 ------- null}
h -t 0.208799999999999 -s 2 -d 6 -p cbr -e 1000 -c 2 -i 136 -a 2 -x {2.0 3.0 136 ------- null}
h -t 0.209599999999999 -s 2 -d 6 -p cbr -e 1000 -c 2 -i 137 -a 2 -x {2.0 3.0 137 ------- null}
h -t 0.210399999999999 -s 2 -d 6 -p cbr -e 1000 -c 2 -i 138 -a 2 -x {2.0 3.0 138 ------- null}
h -t 0.211199999999999 -s 2 -d 6 -p cbr -e 1000 -c 2 -i 139 -a 2 -x {2.0 3.0 139 ------- null}
h -t 0.211999999999999 -s 2 -d 6 -p cbr -e 1000 -c 2 -i 140 -a 2 -x {2.0 3.0 140 ------- null}
h -t 0.212799999999999 -s 2 -d 6 -p cbr -e 1000 -c 2 -i 141 -a 2 -x {2.0 3.0 141 ------- null}
h -t 0.213599999999999 -s 2 -d 6 -p cbr -e 1000 -c 2 -i 142 -a 2 -x {2.0 3.0 142 ------- null}
h -t 0.214399999999999 -s 2 -d 6 -p cbr -e 1000 -c 2 -i 143 -a 2 -x {2.0 3.0 143 ------- null}
h -t 0.215199999999999 -s 2 -d 6 -p cbr -e 1000 -c 2 -i 144 -a 2 -x {2.0 3.0 144 ------- null}
h -t 0.215999999999999 -s 2 -d 6 -p cbr -e 1000 -c 2 -i 145 -a 2 -x {2.0 3.0 145 ------- null}
h -t 0.216799999999999 -s 2 -d 6 -p cbr -e 1000 -c 2 -i 146 -a 2 -x {2.0 3.0 146 ------- null}
h -t 0.217599999999999 -s 2 -d 6 -p cbr -e 1000 -c 2 -i 147 -a 2 -x {2.0 3.0 147 ------- null}
h -t 0.218399999999999 -s 2 -d 6 -p cbr -e 1000 -c 2 -i 148 -a 2 -x {2.0 3.0 148 ------- null}
h -t 0.219199999999999 -s 2 -d 6 -p cbr -e 1000 -c 2 -i 149 -a 2 -x {2.0 3.0 149 ------- null}
h -t 0.219999999999999 -s 2 -d 6 -p cbr -e 1000 -c 2 -i 150 -a 2 -x {2.0 3.0 150 ------- null}
h -t 0.220799999999999 -s 2 -d 6 -p cbr -e 1000 -c 2 -i 151 -a 2 -x {2.0 3.0 151 ------- null}
h -t 0.221599999999999 -s 2 -d 6 -p cbr -e 1000 -c 2 -i 152 -a 2 -x {2.0 3.0 152 ------- null}
h -t 0.222399999999999 -s 2 -d 6 -p cbr -e 1000 -c 2 -i 153 -a 2 -x {2.0 3.0 153 ------- null}
h -t 0.223199999999999 -s 2 -d 6 -p cbr -e 1000 -c 2 -i 154 -a 2 -x {2.0 3.0 154 ------- null}
h -t 0.223999999999999 -s 2 -d 6 -p cbr -e 1000 -c 2 -i 155 -a 2 -x {2.0 3.0 155 ------- null}
h -t 0.224799999999999 -s 2 -d 6 -p cbr -e 1000 -c 2 -i 156 -a 2 -x {2.0 3.0 156 ------- null}
h -t 0.225599999999999 -s 2 -d 6 -p cbr -e 1000 -c 2 -i 157 -a 2 -x {2.0 3.0 157 ------- null}
h -t 0.226399999999999 -s 2 -d 6 -p cbr -e 1000 -c 2 -i 158 -a 2 -x {2.0 3.0 158 ------- null}
h -t 0.227199999999999 -s 2 -d 6 -p cbr -e 1000 -c 2 -i 159 -a 2 -x {2.0 3.0 159 ------- null}
h -t 0.227999999999999 -s 2 -d 6 -p cbr -e 1000 -c 2 -i 160 -a 2 -x {2.0 3.0 160 ------- null}
h -t 0.228799999999999 -s 2 -d 6 -p cbr -e 1000 -c 2 -i 161 -a 2 -x {2.0 3.0 161 ------- null}
h -t 0.229599999999999 -s 2 -d 6 -p cbr -e 1000 -c 2 -i 162 -a 2 -x {2.0 3.0 162 ------- null}
h -t 0.230399999999999 -s 2 -d 6 -p cbr -e 1000 -c 2 -i 163 -a 2 -x {2.0 3.0 163 ------- null}
h -t 0.231199999999999 -s 2 -d 6 -p cbr -e 1000 -c 2 -i 164 -a 2 -x {2.0 3.0 164 ------- null}
h -t 0.231999999999999 -s 2 -d 6 -p cbr -e 1000 -c 2 -i 165 -a 2 -x {2.0 3.0 165 ------- null}
h -t 0.232799999999999 -s 2 -d 6 -p cbr -e 1000 -c 2 -i 166 -a 2 -x {2.0 3.0 166 ------- null}
h -t 0.233599999999999 -s 2 -d 6 -p cbr -e 1000 -c 2 -i 167 -a 2 -x {2.0 3.0 167 ------- null}
h -t 0.234399999999999 -s 2 -d 6 -p cbr -e 1000 -c 2 -i 168 -a 2 -x {2.0 3.0 168 ------- null}
h -t 0.235199999999999 -s 2 -d 6 -p cbr -e 1000 -c 2 -i 169 -a 2 -x {2.0 3.0 169 ------- null}
h -t 0.235999999999999 -s 2 -d 6 -p cbr -e 1000 -c 2 -i 170 -a 2 -x {2.0 3.0 170 ------- null}
h -t 0.236799999999999 -s 2 -d 6 -p cbr -e 1000 -c 2 -i 171 -a 2 -x {2.0 3.0 171 ------- null}
h -t 0.237599999999999 -s 2 -d 6 -p cbr -e 1000 -c 2 -i 172 -a 2 -x {2.0 3.0 172 ------- null}
h -t 0.238399999999999 -s 2 -d 6 -p cbr -e 1000 -c 2 -i 173 -a 2 -x {2.0 3.0 173 ------- null}
h -t 0.239199999999999 -s 2 -d 6 -p cbr -e 1000 -c 2 -i 174 -a 2 -x {2.0 3.0 174 ------- null}
h -t 0.239999999999999 -s 2 -d 6 -p cbr -e 1000 -c 2 -i 175 -a 2 -x {2.0 3.0 175 ------- null}
h -t 0.240799999999999 -s 2 -d 6 -p cbr -e 1000 -c 2 -i 176 -a 2 -x {2.0 3.0 176 ------- null}
h -t 0.241599999999999 -s 2 -d 6 -p cbr -e 1000 -c 2 -i 177 -a 2 -x {2.0 3.0 177 ------- null}
h -t 0.242399999999999 -s 2 -d 6 -p cbr -e 1000 -c 2 -i 178 -a 2 -x {2.0 3.0 178 ------- null}
h -t 0.243199999999999 -s 2 -d 6 -p cbr -e 1000 -c 2 -i 179 -a 2 -x {2.0 3.0 179 ------- null}
h -t 0.243999999999999 -s 2 -d 6 -p cbr -e 1000 -c 2 -i 180 -a 2 -x {2.0 3.0 180 ------- null}
h -t 0.244799999999999 -s 2 -d 6 -p cbr -e 1000 -c 2 -i 181 -a 2 -x {2.0 3.0 181 ------- null}
h -t 0.245599999999999 -s 2 -d 6 -p cbr -e 1000 -c 2 -i 182 -a 2 -x {2.0 3.0 182 ------- null}
h -t 0.246399999999999 -s 2 -d 6 -p cbr -e 1000 -c 2 -i 183 -a 2 -x {2.0 3.0 183 ------- null}
h -t 0.247199999999999 -s 2 -d 6 -p cbr -e 1000 -c 2 -i 184 -a 2 -x {2.0 3.0 184 ------- null}
h -t 0.247999999999999 -s 2 -d 6 -p cbr -e 1000 -c 2 -i 185 -a 2 -x {2.0 3.0 185 ------- null}
h -t 0.248799999999999 -s 2 -d 6 -p cbr -e 1000 -c 2 -i 186 -a 2 -x {2.0 3.0 186 ------- null}
h -t 0.249599999999999 -s 2 -d 6 -p cbr -e 1000 -c 2 -i 187 -a 2 -x {2.0 3.0 187 ------- null}
h -t 0.250399999999999 -s 2 -d 6 -p cbr -e 1000 -c 2 -i 188 -a 2 -x {2.0 3.0 188 ------- null}
h -t 0.251199999999999 -s 2 -d 6 -p cbr -e 1000 -c 2 -i 189 -a 2 -x {2.0 3.0 189 ------- null}
h -t 0.251999999999999 -s 2 -d 6 -p cbr -e 1000 -c 2 -i 190 -a 2 -x {2.0 3.0 190 ------- null}
h -t 0.252799999999999 -s 2 -d 6 -p cbr -e 1000 -c 2 -i 191 -a 2 -x {2.0 3.0 191 ------- null}
h -t 0.253599999999999 -s 2 -d 6 -p cbr -e 1000 -c 2 -i 192 -a 2 -x {2.0 3.0 192 ------- null}
h -t 0.254399999999999 -s 2 -d 6 -p cbr -e 1000 -c 2 -i 193 -a 2 -x {2.0 3.0 193 ------- null}
h -t 0.255199999999999 -s 2 -d 6 -p cbr -e 1000 -c 2 -i 194 -a 2 -x {2.0 3.0 194 ------- null}
h -t 0.255999999999999 -s 2 -d 6 -p cbr -e 1000 -c 2 -i 195 -a 2 -x {2.0 3.0 195 ------- null}
h -t 0.256799999999999 -s 2 -d 6 -p cbr -e 1000 -c 2 -i 196 -a 2 -x {2.0 3.0 196 ------- null}
h -t 0.257599999999999 -s 2 -d 6 -p cbr -e 1000 -c 2 -i 197 -a 2 -x {2.0 3.0 197 ------- null}
h -t 0.258399999999999 -s 2 -d 6 -p cbr -e 1000 -c 2 -i 198 -a 2 -x {2.0 3.0 198 ------- null}
h -t 0.259199999999999 -s 2 -d 6 -p cbr -e 1000 -c 2 -i 199 -a 2 -x {2.0 3.0 199 ------- null}
h -t 0.259999999999999 -s 2 -d 6 -p cbr -e 1000 -c 2 -i 200 -a 2 -x {2.0 3.0 200 ------- null}
h -t 0.260799999999999 -s 2 -d 6 -p cbr -e 1000 -c 2 -i 201 -a 2 -x {2.0 3.0 201 ------- null}
h -t 0.261599999999999 -s 2 -d 6 -p cbr -e 1000 -c 2 -i 202 -a 2 -x {2.0 3.0 202 ------- null}
h -t 0.262399999999999 -s 2 -d 6 -p cbr -e 1000 -c 2 -i 203 -a 2 -x {2.0 3.0 203 ------- null}
h -t 0.263199999999999 -s 2 -d 6 -p cbr -e 1000 -c 2 -i 204 -a 2 -x {2.0 3.0 204 ------- null}
h -t 0.264 -s 2 -d 6 -p cbr -e 1000 -c 2 -i 205 -a 2 -x {2.0 3.0 205 ------- null}
h -t 0.2648 -s 2 -d 6 -p cbr -e 1000 -c 2 -i 206 -a 2 -x {2.0 3.0 206 ------- null}
h -t 0.2656 -s 2 -d 6 -p cbr -e 1000 -c 2 -i 207 -a 2 -x {2.0 3.0 207 ------- null}
h -t 0.2664 -s 2 -d 6 -p cbr -e 1000 -c 2 -i 208 -a 2 -x {2.0 3.0 208 ------- null}
h -t 0.2672 -s 2 -d 6 -p cbr -e 1000 -c 2 -i 209 -a 2 -x {2.0 3.0 209 ------- null}
h -t 0.268 -s 2 -d 6 -p cbr -e 1000 -c 2 -i 210 -a 2 -x {2.0 3.0 210 ------- null}
h -t 0.2688 -s 2 -d 6 -p cbr -e 1000 -c 2 -i 211 -a 2 -x {2.0 3.0 211 ------- null}
h -t 0.2696 -s 2 -d 6 -p cbr -e 1000 -c 2 -i 212 -a 2 -x {2.0 3.0 212 ------- null}
h -t 0.2704 -s 2 -d 6 -p cbr -e 1000 -c 2 -i 213 -a 2 -x {2.0 3.0 213 ------- null}
h -t 0.2712 -s 2 -d 6 -p cbr -e 1000 -c 2 -i 214 -a 2 -x {2.0 3.0 214 ------- null}
h -t 0.272 -s 2 -d 6 -p cbr -e 1000 -c 2 -i 215 -a 2 -x {2.0 3.0 215 ------- null}
h -t 0.2728 -s 2 -d 6 -p cbr -e 1000 -c 2 -i 216 -a 2 -x {2.0 3.0 216 ------- null}
h -t 0.2736 -s 2 -d 6 -p cbr -e 1000 -c 2 -i 217 -a 2 -x {2.0 3.0 217 ------- null}
h -t 0.2744 -s 2 -d 6 -p cbr -e 1000 -c 2 -i 218 -a 2 -x {2.0 3.0 218 ------- null}
h -t 0.2752 -s 2 -d 6 -p cbr -e 1000 -c 2 -i 219 -a 2 -x {2.0 3.0 219 ------- null}
h -t 0.276 -s 2 -d 6 -p cbr -e 1000 -c 2 -i 220 -a 2 -x {2.0 3.0 220 ------- null}
h -t 0.2768 -s 2 -d 6 -p cbr -e 1000 -c 2 -i 221 -a 2 -x {2.0 3.0 221 ------- null}
h -t 0.2776 -s 2 -d 6 -p cbr -e 1000 -c 2 -i 222 -a 2 -x {2.0 3.0 222 ------- null}
h -t 0.2784 -s 2 -d 6 -p cbr -e 1000 -c 2 -i 223 -a 2 -x {2.0 3.0 223 ------- null}
h -t 0.2792 -s 2 -d 6 -p cbr -e 1000 -c 2 -i 224 -a 2 -x {2.0 3.0 224 ------- null}
h -t 0.28 -s 2 -d 6 -p cbr -e 1000 -c 2 -i 225 -a 2 -x {2.0 3.0 225 ------- null}
h -t 0.2808 -s 2 -d 6 -p cbr -e 1000 -c 2 -i 226 -a 2 -x {2.0 3.0 226 ------- null}
h -t 0.2816 -s 2 -d 6 -p cbr -e 1000 -c 2 -i 227 -a 2 -x {2.0 3.0 227 ------- null}
h -t 0.2824 -s 2 -d 6 -p cbr -e 1000 -c 2 -i 228 -a 2 -x {2.0 3.0 228 ------- null}
h -t 0.2832 -s 2 -d 6 -p cbr -e 1000 -c 2 -i 229 -a 2 -x {2.0 3.0 229 ------- null}
h -t 0.284 -s 2 -d 6 -p cbr -e 1000 -c 2 -i 230 -a 2 -x {2.0 3.0 230 ------- null}
h -t 0.2848 -s 2 -d 6 -p cbr -e 1000 -c 2 -i 231 -a 2 -x {2.0 3.0 231 ------- null}
h -t 0.2856 -s 2 -d 6 -p cbr -e 1000 -c 2 -i 232 -a 2 -x {2.0 3.0 232 ------- null}
h -t 0.2864 -s 2 -d 6 -p cbr -e 1000 -c 2 -i 233 -a 2 -x {2.0 3.0 233 ------- null}
h -t 0.2872 -s 2 -d 6 -p cbr -e 1000 -c 2 -i 234 -a 2 -x {2.0 3.0 234 ------- null}
h -t 0.288 -s 2 -d 6 -p cbr -e 1000 -c 2 -i 235 -a 2 -x {2.0 3.0 235 ------- null}
h -t 0.2888 -s 2 -d 6 -p cbr -e 1000 -c 2 -i 236 -a 2 -x {2.0 3.0 236 ------- null}
h -t 0.2896 -s 2 -d 6 -p cbr -e 1000 -c 2 -i 237 -a 2 -x {2.0 3.0 237 ------- null}
h -t 0.2904 -s 2 -d 6 -p cbr -e 1000 -c 2 -i 238 -a 2 -x {2.0 3.0 238 ------- null}
h -t 0.2912 -s 2 -d 6 -p cbr -e 1000 -c 2 -i 239 -a 2 -x {2.0 3.0 239 ------- null}
h -t 0.292 -s 2 -d 6 -p cbr -e 1000 -c 2 -i 240 -a 2 -x {2.0 3.0 240 ------- null}
h -t 0.2928 -s 2 -d 6 -p cbr -e 1000 -c 2 -i 241 -a 2 -x {2.0 3.0 241 ------- null}
h -t 0.2936 -s 2 -d 6 -p cbr -e 1000 -c 2 -i 242 -a 2 -x {2.0 3.0 242 ------- null}
h -t 0.2944 -s 2 -d 6 -p cbr -e 1000 -c 2 -i 243 -a 2 -x {2.0 3.0 243 ------- null}
h -t 0.2952 -s 2 -d 6 -p cbr -e 1000 -c 2 -i 244 -a 2 -x {2.0 3.0 244 ------- null}
h -t 0.296 -s 2 -d 6 -p cbr -e 1000 -c 2 -i 245 -a 2 -x {2.0 3.0 245 ------- null}
h -t 0.2968 -s 2 -d 6 -p cbr -e 1000 -c 2 -i 246 -a 2 -x {2.0 3.0 246 ------- null}
h -t 0.2976 -s 2 -d 6 -p cbr -e 1000 -c 2 -i 247 -a 2 -x {2.0 3.0 247 ------- null}
h -t 0.2984 -s 2 -d 6 -p cbr -e 1000 -c 2 -i 248 -a 2 -x {2.0 3.0 248 ------- null}
h -t 0.299200000000001 -s 2 -d 6 -p cbr -e 1000 -c 2 -i 249 -a 2 -x {2.0 3.0 249 ------- null}
h -t 0.300000000000001 -s 2 -d 6 -p cbr -e 1000 -c 2 -i 250 -a 2 -x {2.0 3.0 250 ------- null}
h -t 0.300800000000001 -s 2 -d 6 -p cbr -e 1000 -c 2 -i 251 -a 2 -x {2.0 3.0 251 ------- null}
h -t 0.301600000000001 -s 2 -d 6 -p cbr -e 1000 -c 2 -i 252 -a 2 -x {2.0 3.0 252 ------- null}
h -t 0.302400000000001 -s 2 -d 6 -p cbr -e 1000 -c 2 -i 253 -a 2 -x {2.0 3.0 253 ------- null}
h -t 0.303200000000001 -s 2 -d 6 -p cbr -e 1000 -c 2 -i 254 -a 2 -x {2.0 3.0 254 ------- null}
h -t 0.304000000000001 -s 2 -d 6 -p cbr -e 1000 -c 2 -i 255 -a 2 -x {2.0 3.0 255 ------- null}
h -t 0.304800000000001 -s 2 -d 6 -p cbr -e 1000 -c 2 -i 256 -a 2 -x {2.0 3.0 256 ------- null}
h -t 0.305600000000001 -s 2 -d 6 -p cbr -e 1000 -c 2 -i 257 -a 2 -x {2.0 3.0 257 ------- null}
h -t 0.306400000000001 -s 2 -d 6 -p cbr -e 1000 -c 2 -i 258 -a 2 -x {2.0 3.0 258 ------- null}
h -t 0.307200000000001 -s 2 -d 6 -p cbr -e 1000 -c 2 -i 259 -a 2 -x {2.0 3.0 259 ------- null}
h -t 0.308000000000001 -s 2 -d 6 -p cbr -e 1000 -c 2 -i 260 -a 2 -x {2.0 3.0 260 ------- null}
h -t 0.308800000000001 -s 2 -d 6 -p cbr -e 1000 -c 2 -i 261 -a 2 -x {2.0 3.0 261 ------- null}
h -t 0.309600000000001 -s 2 -d 6 -p cbr -e 1000 -c 2 -i 262 -a 2 -x {2.0 3.0 262 ------- null}
h -t 0.310400000000001 -s 2 -d 6 -p cbr -e 1000 -c 2 -i 263 -a 2 -x {2.0 3.0 263 ------- null}
h -t 0.311200000000001 -s 2 -d 6 -p cbr -e 1000 -c 2 -i 264 -a 2 -x {2.0 3.0 264 ------- null}
h -t 0.312000000000001 -s 2 -d 6 -p cbr -e 1000 -c 2 -i 265 -a 2 -x {2.0 3.0 265 ------- null}
h -t 0.312800000000001 -s 2 -d 6 -p cbr -e 1000 -c 2 -i 266 -a 2 -x {2.0 3.0 266 ------- null}
h -t 0.313600000000001 -s 2 -d 6 -p cbr -e 1000 -c 2 -i 267 -a 2 -x {2.0 3.0 267 ------- null}
h -t 0.314400000000001 -s 2 -d 6 -p cbr -e 1000 -c 2 -i 268 -a 2 -x {2.0 3.0 268 ------- null}
h -t 0.315200000000001 -s 2 -d 6 -p cbr -e 1000 -c 2 -i 269 -a 2 -x {2.0 3.0 269 ------- null}
h -t 0.316000000000001 -s 2 -d 6 -p cbr -e 1000 -c 2 -i 270 -a 2 -x {2.0 3.0 270 ------- null}
h -t 0.316800000000001 -s 2 -d 6 -p cbr -e 1000 -c 2 -i 271 -a 2 -x {2.0 3.0 271 ------- null}
h -t 0.317600000000001 -s 2 -d 6 -p cbr -e 1000 -c 2 -i 272 -a 2 -x {2.0 3.0 272 ------- null}
h -t 0.318400000000001 -s 2 -d 6 -p cbr -e 1000 -c 2 -i 273 -a 2 -x {2.0 3.0 273 ------- null}
h -t 0.319200000000001 -s 2 -d 6 -p cbr -e 1000 -c 2 -i 274 -a 2 -x {2.0 3.0 274 ------- null}
h -t 0.320000000000001 -s 2 -d 6 -p cbr -e 1000 -c 2 -i 275 -a 2 -x {2.0 3.0 275 ------- null}
h -t 0.320800000000001 -s 2 -d 6 -p cbr -e 1000 -c 2 -i 276 -a 2 -x {2.0 3.0 276 ------- null}
h -t 0.321600000000001 -s 2 -d 6 -p cbr -e 1000 -c 2 -i 277 -a 2 -x {2.0 3.0 277 ------- null}
h -t 0.322400000000001 -s 2 -d 6 -p cbr -e 1000 -c 2 -i 278 -a 2 -x {2.0 3.0 278 ------- null}
h -t 0.323200000000001 -s 2 -d 6 -p cbr -e 1000 -c 2 -i 279 -a 2 -x {2.0 3.0 279 ------- null}
h -t 0.324000000000001 -s 2 -d 6 -p cbr -e 1000 -c 2 -i 280 -a 2 -x {2.0 3.0 280 ------- null}
h -t 0.324800000000001 -s 2 -d 6 -p cbr -e 1000 -c 2 -i 281 -a 2 -x {2.0 3.0 281 ------- null}
h -t 0.325600000000001 -s 2 -d 6 -p cbr -e 1000 -c 2 -i 282 -a 2 -x {2.0 3.0 282 ------- null}
h -t 0.326400000000001 -s 2 -d 6 -p cbr -e 1000 -c 2 -i 283 -a 2 -x {2.0 3.0 283 ------- null}
h -t 0.327200000000001 -s 2 -d 6 -p cbr -e 1000 -c 2 -i 284 -a 2 -x {2.0 3.0 284 ------- null}
h -t 0.328000000000001 -s 2 -d 6 -p cbr -e 1000 -c 2 -i 285 -a 2 -x {2.0 3.0 285 ------- null}
h -t 0.328800000000001 -s 2 -d 6 -p cbr -e 1000 -c 2 -i 286 -a 2 -x {2.0 3.0 286 ------- null}
h -t 0.329600000000001 -s 2 -d 6 -p cbr -e 1000 -c 2 -i 287 -a 2 -x {2.0 3.0 287 ------- null}
h -t 0.330400000000001 -s 2 -d 6 -p cbr -e 1000 -c 2 -i 288 -a 2 -x {2.0 3.0 288 ------- null}
h -t 0.331200000000001 -s 2 -d 6 -p cbr -e 1000 -c 2 -i 289 -a 2 -x {2.0 3.0 289 ------- null}
h -t 0.332000000000001 -s 2 -d 6 -p cbr -e 1000 -c 2 -i 290 -a 2 -x {2.0 3.0 290 ------- null}
h -t 0.332800000000001 -s 2 -d 6 -p cbr -e 1000 -c 2 -i 291 -a 2 -x {2.0 3.0 291 ------- null}
h -t 0.333600000000002 -s 2 -d 6 -p cbr -e 1000 -c 2 -i 292 -a 2 -x {2.0 3.0 292 ------- null}
h -t 0.334400000000002 -s 2 -d 6 -p cbr -e 1000 -c 2 -i 293 -a 2 -x {2.0 3.0 293 ------- null}
h -t 0.335200000000002 -s 2 -d 6 -p cbr -e 1000 -c 2 -i 294 -a 2 -x {2.0 3.0 294 ------- null}
h -t 0.336000000000002 -s 2 -d 6 -p cbr -e 1000 -c 2 -i 295 -a 2 -x {2.0 3.0 295 ------- null}
h -t 0.336800000000002 -s 2 -d 6 -p cbr -e 1000 -c 2 -i 296 -a 2 -x {2.0 3.0 296 ------- null}
h -t 0.337600000000002 -s 2 -d 6 -p cbr -e 1000 -c 2 -i 297 -a 2 -x {2.0 3.0 297 ------- null}
h -t 0.338400000000002 -s 2 -d 6 -p cbr -e 1000 -c 2 -i 298 -a 2 -x {2.0 3.0 298 ------- null}
h -t 0.339200000000002 -s 2 -d 6 -p cbr -e 1000 -c 2 -i 299 -a 2 -x {2.0 3.0 299 ------- null}
h -t 0.340000000000002 -s 2 -d 6 -p cbr -e 1000 -c 2 -i 300 -a 2 -x {2.0 3.0 300 ------- null}
h -t 0.340800000000002 -s 2 -d 6 -p cbr -e 1000 -c 2 -i 301 -a 2 -x {2.0 3.0 301 ------- null}
h -t 0.341600000000002 -s 2 -d 6 -p cbr -e 1000 -c 2 -i 302 -a 2 -x {2.0 3.0 302 ------- null}
h -t 0.342400000000002 -s 2 -d 6 -p cbr -e 1000 -c 2 -i 303 -a 2 -x {2.0 3.0 303 ------- null}
h -t 0.343200000000002 -s 2 -d 6 -p cbr -e 1000 -c 2 -i 304 -a 2 -x {2.0 3.0 304 ------- null}
h -t 0.344000000000002 -s 2 -d 6 -p cbr -e 1000 -c 2 -i 305 -a 2 -x {2.0 3.0 305 ------- null}
h -t 0.344800000000002 -s 2 -d 6 -p cbr -e 1000 -c 2 -i 306 -a 2 -x {2.0 3.0 306 ------- null}
h -t 0.345600000000002 -s 2 -d 6 -p cbr -e 1000 -c 2 -i 307 -a 2 -x {2.0 3.0 307 ------- null}
h -t 0.346400000000002 -s 2 -d 6 -p cbr -e 1000 -c 2 -i 308 -a 2 -x {2.0 3.0 308 ------- null}
h -t 0.347200000000002 -s 2 -d 6 -p cbr -e 1000 -c 2 -i 309 -a 2 -x {2.0 3.0 309 ------- null}
h -t 0.348000000000002 -s 2 -d 6 -p cbr -e 1000 -c 2 -i 310 -a 2 -x {2.0 3.0 310 ------- null}
h -t 0.348800000000002 -s 2 -d 6 -p cbr -e 1000 -c 2 -i 311 -a 2 -x {2.0 3.0 311 ------- null}
h -t 0.349600000000002 -s 2 -d 6 -p cbr -e 1000 -c 2 -i 312 -a 2 -x {2.0 3.0 312 ------- null}
h -t 0.350400000000002 -s 2 -d 6 -p cbr -e 1000 -c 2 -i 313 -a 2 -x {2.0 3.0 313 ------- null}
h -t 0.351200000000002 -s 2 -d 6 -p cbr -e 1000 -c 2 -i 314 -a 2 -x {2.0 3.0 314 ------- null}
h -t 0.352000000000002 -s 2 -d 6 -p cbr -e 1000 -c 2 -i 315 -a 2 -x {2.0 3.0 315 ------- null}
h -t 0.352800000000002 -s 2 -d 6 -p cbr -e 1000 -c 2 -i 316 -a 2 -x {2.0 3.0 316 ------- null}
h -t 0.353600000000002 -s 2 -d 6 -p cbr -e 1000 -c 2 -i 317 -a 2 -x {2.0 3.0 317 ------- null}
h -t 0.354400000000002 -s 2 -d 6 -p cbr -e 1000 -c 2 -i 318 -a 2 -x {2.0 3.0 318 ------- null}
h -t 0.355200000000002 -s 2 -d 6 -p cbr -e 1000 -c 2 -i 319 -a 2 -x {2.0 3.0 319 ------- null}
h -t 0.356000000000002 -s 2 -d 6 -p cbr -e 1000 -c 2 -i 320 -a 2 -x {2.0 3.0 320 ------- null}
h -t 0.356800000000002 -s 2 -d 6 -p cbr -e 1000 -c 2 -i 321 -a 2 -x {2.0 3.0 321 ------- null}
h -t 0.357600000000002 -s 2 -d 6 -p cbr -e 1000 -c 2 -i 322 -a 2 -x {2.0 3.0 322 ------- null}
h -t 0.358400000000002 -s 2 -d 6 -p cbr -e 1000 -c 2 -i 323 -a 2 -x {2.0 3.0 323 ------- null}
h -t 0.359200000000002 -s 2 -d 6 -p cbr -e 1000 -c 2 -i 324 -a 2 -x {2.0 3.0 324 ------- null}
h -t 0.360000000000002 -s 2 -d 6 -p cbr -e 1000 -c 2 -i 325 -a 2 -x {2.0 3.0 325 ------- null}
h -t 0.360800000000002 -s 2 -d 6 -p cbr -e 1000 -c 2 -i 326 -a 2 -x {2.0 3.0 326 ------- null}
h -t 0.361600000000002 -s 2 -d 6 -p cbr -e 1000 -c 2 -i 327 -a 2 -x {2.0 3.0 327 ------- null}
h -t 0.362400000000002 -s 2 -d 6 -p cbr -e 1000 -c 2 -i 328 -a 2 -x {2.0 3.0 328 ------- null}