+ 0.1 0 1 cbr 500 ------- 0 0.0 1.0 0 0
- 0.1 0 1 cbr 500 ------- 0 0.0 1.0 0 0
+ 0.105 0 1 cbr 500 ------- 0 0.0 1.0 1 1
- 0.105 0 1 cbr 500 ------- 0 0.0 1.0 1 1
+ 0.11 0 1 cbr 500 ------- 0 0.0 1.0 2 2
- 0.11 0 1 cbr 500 ------- 0 0.0 1.0 2 2
r 0.114 0 1 cbr 500 ------- 0 0.0 1.0 0 0
+ 0.115 0 1 cbr 500 ------- 0 0.0 1.0 3 3
- 0.115 0 1 cbr 500 ------- 0 0.0 1.0 3 3
r 0.119 0 1 cbr 500 ------- 0 0.0 1.0 1 1
+ 0.12 0 1 cbr 500 ------- 0 0.0 1.0 4 4
- 0.12 0 1 cbr 500 ------- 0 0.0 1.0 4 4
r 0.124 0 1 cbr 500 ------- 0 0.0 1.0 2 2
+ 0.125 0 1 cbr 500 ------- 0 0.0 1.0 5 5
- 0.125 0 1 cbr 500 ------- 0 0.0 1.0 5 5
r 0.129 0 1 cbr 500 ------- 0 0.0 1.0 3 3
+ 0.13 0 1 cbr 500 ------- 0 0.0 1.0 6 6
- 0.13 0 1 cbr 500 ------- 0 0.0 1.0 6 6
r 0.134 0 1 cbr 500 ------- 0 0.0 1.0 4 4
+ 0.135 0 1 cbr 500 ------- 0 0.0 1.0 7 7
- 0.135 0 1 cbr 500 ------- 0 0.0 1.0 7 7
r 0.139 0 1 cbr 500 ------- 0 0.0 1.0 5 5
+ 0.14 0 1 cbr 500 ------- 0 0.0 1.0 8 8
- 0.14 0 1 cbr 500 ------- 0 0.0 1.0 8 8
r 0.144 0 1 cbr 500 ------- 0 0.0 1.0 6 6
+ 0.145 0 1 cbr 500 ------- 0 0.0 1.0 9 9
- 0.145 0 1 cbr 500 ------- 0 0.0 1.0 9 9
r 0.149 0 1 cbr 500 ------- 0 0.0 1.0 7 7
+ 0.15 0 1 cbr 500 ------- 0 0.0 1.0 10 10
- 0.15 0 1 cbr 500 ------- 0 0.0 1.0 10 10
r 0.154 0 1 cbr 500 ------- 0 0.0 1.0 8 8
+ 0.155 0 1 cbr 500 ------- 0 0.0 1.0 11 11
- 0.155 0 1 cbr 500 ------- 0 0.0 1.0 11 11
r 0.159 0 1 cbr 500 ------- 0 0.0 1.0 9 9
+ 0.16 0 1 cbr 500 ------- 0 0.0 1.0 12 12
- 0.16 0 1 cbr 500 ------- 0 0.0 1.0 12 12
r 0.164 0 1 cbr 500 ------- 0 0.0 1.0 10 10
+ 0.165 0 1 cbr 500 ------- 0 0.0 1.0 13 13
- 0.165 0 1 cbr 500 ------- 0 0.0 1.0 13 13
r 0.169 0 1 cbr 500 ------- 0 0.0 1.0 11 11
+ 0.17 0 1 cbr 500 ------- 0 0.0 1.0 14 14
- 0.17 0 1 cbr 500 ------- 0 0.0 1.0 14 14
r 0.174 0 1 cbr 500 ------- 0 0.0 1.0 12 12
+ 0.175 0 1 cbr 500 ------- 0 0.0 1.0 15 15
- 0.175 0 1 cbr 500 ------- 0 0.0 1.0 15 15
r 0.179 0 1 cbr 500 ------- 0 0.0 1.0 13 13
+ 0.18 0 1 cbr 500 ------- 0 0.0 1.0 16 16
- 0.18 0 1 cbr 500 ------- 0 0.0 1.0 16 16
r 0.184 0 1 cbr 500 ------- 0 0.0 1.0 14 14
+ 0.185 0 1 cbr 500 ------- 0 0.0 1.0 17 17
- 0.185 0 1 cbr 500 ------- 0 0.0 1.0 17 17
r 0.189 0 1 cbr 500 ------- 0 0.0 1.0 15 15
+ 0.19 0 1 cbr 500 ------- 0 0.0 1.0 18 18
- 0.19 0 1 cbr 500 ------- 0 0.0 1.0 18 18
r 0.194 0 1 cbr 500 ------- 0 0.0 1.0 16 16
+ 0.195 0 1 cbr 500 ------- 0 0.0 1.0 19 19
- 0.195 0 1 cbr 500 ------- 0 0.0 1.0 19 19
r 0.199 0 1 cbr 500 ------- 0 0.0 1.0 17 17
+ 0.2 0 1 cbr 500 ------- 0 0.0 1.0 20 20
- 0.2 0 1 cbr 500 ------- 0 0.0 1.0 20 20
r 0.204 0 1 cbr 500 ------- 0 0.0 1.0 18 18
+ 0.205 0 1 cbr 500 ------- 0 0.0 1.0 21 21
- 0.205 0 1 cbr 500 ------- 0 0.0 1.0 21 21
r 0.209 0 1 cbr 500 ------- 0 0.0 1.0 19 19
+ 0.21 0 1 cbr 500 ------- 0 0.0 1.0 22 22
- 0.21 0 1 cbr 500 ------- 0 0.0 1.0 22 22
r 0.214 0 1 cbr 500 ------- 0 0.0 1.0 20 20
+ 0.215 0 1 cbr 500 ------- 0 0.0 1.0 23 23
- 0.215 0 1 cbr 500 ------- 0 0.0 1.0 23 23
r 0.219 0 1 cbr 500 ------- 0 0.0 1.0 21 21
+ 0.22 0 1 cbr 500 ------- 0 0.0 1.0 24 24
- 0.22 0 1 cbr 500 ------- 0 0.0 1.0 24 24
r 0.224 0 1 cbr 500 ------- 0 0.0 1.0 22 22
+ 0.225 0 1 cbr 500 ------- 0 0.0 1.0 25 25
- 0.225 0 1 cbr 500 ------- 0 0.0 1.0 25 25
r 0.229 0 1 cbr 500 ------- 0 0.0 1.0 23 23
+ 0.23 0 1 cbr 500 ------- 0 0.0 1.0 26 26
- 0.23 0 1 cbr 500 ------- 0 0.0 1.0 26 26
r 0.234 0 1 cbr 500 ------- 0 0.0 1.0 24 24
+ 0.235 0 1 cbr 500 ------- 0 0.0 1.0 27 27
- 0.235 0 1 cbr 500 ------- 0 0.0 1.0 27 27
r 0.239 0 1 cbr 500 ------- 0 0.0 1.0 25 25
+ 0.24 0 1 cbr 500 ------- 0 0.0 1.0 28 28
- 0.24 0 1 cbr 500 ------- 0 0.0 1.0 28 28
r 0.244 0 1 cbr 500 ------- 0 0.0 1.0 26 26
+ 0.245 0 1 cbr 500 ------- 0 0.0 1.0 29 29
- 0.245 0 1 cbr 500 ------- 0 0.0 1.0 29 29
r 0.249 0 1 cbr 500 ------- 0 0.0 1.0 27 27
+ 0.25 0 1 cbr 500 ------- 0 0.0 1.0 30 30
- 0.25 0 1 cbr 500 ------- 0 0.0 1.0 30 30
r 0.254 0 1 cbr 500 ------- 0 0.0 1.0 28 28
+ 0.255 0 1 cbr 500 ------- 0 0.0 1.0 31 31
- 0.255 0 1 cbr 500 ------- 0 0.0 1.0 31 31
r 0.259 0 1 cbr 500 ------- 0 0.0 1.0 29 29
+ 0.26 0 1 cbr 500 ------- 0 0.0 1.0 32 32
- 0.26 0 1 cbr 500 ------- 0 0.0 1.0 32 32
r 0.264 0 1 cbr 500 ------- 0 0.0 1.0 30 30
+ 0.265 0 1 cbr 500 ------- 0 0.0 1.0 33 33
- 0.265 0 1 cbr 500 ------- 0 0.0 1.0 33 33
r 0.269 0 1 cbr 500 ------- 0 0.0 1.0 31 31
+ 0.27 0 1 cbr 500 ------- 0 0.0 1.0 34 34
- 0.27 0 1 cbr 500 ------- 0 0.0 1.0 34 34
r 0.274 0 1 cbr 500 ------- 0 0.0 1.0 32 32
+ 0.275 0 1 cbr 500 ------- 0 0.0 1.0 35 35
- 0.275 0 1 cbr 500 ------- 0 0.0 1.0 35 35
r 0.279 0 1 cbr 500 ------- 0 0.0 1.0 33 33
+ 0.28 0 1 cbr 500 ------- 0 0.0 1.0 36 36
- 0.28 0 1 cbr 500 ------- 0 0.0 1.0 36 36
r 0.284 0 1 cbr 500 ------- 0 0.0 1.0 34 34
+ 0.285 0 1 cbr 500 ------- 0 0.0 1.0 37 37
- 0.285 0 1 cbr 500 ------- 0 0.0 1.0 37 37
r 0.289 0 1 cbr 500 ------- 0 0.0 1.0 35 35
+ 0.29 0 1 cbr 500 ------- 0 0.0 1.0 38 38
- 0.29 0 1 cbr 500 ------- 0 0.0 1.0 38 38
r 0.294 0 1 cbr 500 ------- 0 0.0 1.0 36 36
+ 0.295 0 1 cbr 500 ------- 0 0.0 1.0 39 39
- 0.295 0 1 cbr 500 ------- 0 0.0 1.0 39 39
r 0.299 0 1 cbr 500 ------- 0 0.0 1.0 37 37
+ 0.3 0 1 cbr 500 ------- 0 0.0 1.0 40 40
- 0.3 0 1 cbr 500 ------- 0 0.0 1.0 40 40
r 0.304 0 1 cbr 500 ------- 0 0.0 1.0 38 38
+ 0.305 0 1 cbr 500 ------- 0 0.0 1.0 41 41
- 0.305 0 1 cbr 500 ------- 0 0.0 1.0 41 41
r 0.309 0 1 cbr 500 ------- 0 0.0 1.0 39 39
+ 0.31 0 1 cbr 500 ------- 0 0.0 1.0 42 42
- 0.31 0 1 cbr 500 ------- 0 0.0 1.0 42 42
r 0.314 0 1 cbr 500 ------- 0 0.0 1.0 40 40
+ 0.315 0 1 cbr 500 ------- 0 0.0 1.0 43 43
- 0.315 0 1 cbr 500 ------- 0 0.0 1.0 43 43
r 0.319 0 1 cbr 500 ------- 0 0.0 1.0 41 41
+ 0.32 0 1 cbr 500 ------- 0 0.0 1.0 44 44
- 0.32 0 1 cbr 500 ------- 0 0.0 1.0 44 44
r 0.324 0 1 cbr 500 ------- 0 0.0 1.0 42 42
+ 0.325 0 1 cbr 500 ------- 0 0.0 1.0 45 45
- 0.325 0 1 cbr 500 ------- 0 0.0 1.0 45 45
r 0.329 0 1 cbr 500 ------- 0 0.0 1.0 43 43
+ 0.33 0 1 cbr 500 ------- 0 0.0 1.0 46 46
- 0.33 0 1 cbr 500 ------- 0 0.0 1.0 46 46
r 0.334 0 1 cbr 500 ------- 0 0.0 1.0 44 44
+ 0.335 0 1 cbr 500 ------- 0 0.0 1.0 47 47
- 0.335 0 1 cbr 500 ------- 0 0.0 1.0 47 47
r 0.339 0 1 cbr 500 ------- 0 0.0 1.0 45 45
+ 0.34 0 1 cbr 500 ------- 0 0.0 1.0 48 48
- 0.34 0 1 cbr 500 ------- 0 0.0 1.0 48 48
r 0.344 0 1 cbr 500 ------- 0 0.0 1.0 46 46
+ 0.345 0 1 cbr 500 ------- 0 0.0 1.0 49 49
- 0.345 0 1 cbr 500 ------- 0 0.0 1.0 49 49
r 0.349 0 1 cbr 500 ------- 0 0.0 1.0 47 47
+ 0.35 0 1 cbr 500 ------- 0 0.0 1.0 50 50
- 0.35 0 1 cbr 500 ------- 0 0.0 1.0 50 50
r 0.354 0 1 cbr 500 ------- 0 0.0 1.0 48 48
+ 0.355 0 1 cbr 500 ------- 0 0.0 1.0 51 51
- 0.355 0 1 cbr 500 ------- 0 0.0 1.0 51 51
r 0.359 0 1 cbr 500 ------- 0 0.0 1.0 49 49
+ 0.36 0 1 cbr 500 ------- 0 0.0 1.0 52 52
- 0.36 0 1 cbr 500 ------- 0 0.0 1.0 52 52
r 0.364 0 1 cbr 500 ------- 0 0.0 1.0 50 50
+ 0.365 0 1 cbr 500 ------- 0 0.0 1.0 53 53
- 0.365 0 1 cbr 500 ------- 0 0.0 1.0 53 53
r 0.369 0 1 cbr 500 ------- 0 0.0 1.0 51 51
+ 0.37 0 1 cbr 500 ------- 0 0.0 1.0 54 54
- 0.37 0 1 cbr 500 ------- 0 0.0 1.0 54 54
r 0.374 0 1 cbr 500 ------- 0 0.0 1.0 52 52
+ 0.375 0 1 cbr 500 ------- 0 0.0 1.0 55 55
- 0.375 0 1 cbr 500 ------- 0 0.0 1.0 55 55
r 0.379 0 1 cbr 500 ------- 0 0.0 1.0 53 53
+ 0.38 0 1 cbr 500 ------- 0 0.0 1.0 56 56
- 0.38 0 1 cbr 500 ------- 0 0.0 1.0 56 56
r 0.384 0 1 cbr 500 ------- 0 0.0 1.0 54 54
+ 0.385 0 1 cbr 500 ------- 0 0.0 1.0 57 57
- 0.385 0 1 cbr 500 ------- 0 0.0 1.0 57 57
r 0.389 0 1 cbr 500 ------- 0 0.0 1.0 55 55
+ 0.39 0 1 cbr 500 ------- 0 0.0 1.0 58 58
- 0.39 0 1 cbr 500 ------- 0 0.0 1.0 58 58
r 0.394 0 1 cbr 500 ------- 0 0.0 1.0 56 56
+ 0.395 0 1 cbr 500 ------- 0 0.0 1.0 59 59
- 0.395 0 1 cbr 500 ------- 0 0.0 1.0 59 59
r 0.399 0 1 cbr 500 ------- 0 0.0 1.0 57 57
+ 0.4 0 1 cbr 500 ------- 0 0.0 1.0 60 60
- 0.4 0 1 cbr 500 ------- 0 0.0 1.0 60 60
r 0.404 0 1 cbr 500 ------- 0 0.0 1.0 58 58
+ 0.405 0 1 cbr 500 ------- 0 0.0 1.0 61 61
- 0.405 0 1 cbr 500 ------- 0 0.0 1.0 61 61
r 0.409 0 1 cbr 500 ------- 0 0.0 1.0 59 59
+ 0.41 0 1 cbr 500 ------- 0 0.0 1.0 62 62
- 0.41 0 1 cbr 500 ------- 0 0.0 1.0 62 62
r 0.414 0 1 cbr 500 ------- 0 0.0 1.0 60 60
+ 0.415 0 1 cbr 500 ------- 0 0.0 1.0 63 63
- 0.415 0 1 cbr 500 ------- 0 0.0 1.0 63 63
r 0.419 0 1 cbr 500 ------- 0 0.0 1.0 61 61
+ 0.42 0 1 cbr 500 ------- 0 0.0 1.0 64 64
- 0.42 0 1 cbr 500 ------- 0 0.0 1.0 64 64
r 0.424 0 1 cbr 500 ------- 0 0.0 1.0 62 62
+ 0.425 0 1 cbr 500 ------- 0 0.0 1.0 65 65
- 0.425 0 1 cbr 500 ------- 0 0.0 1.0 65 65
r 0.429 0 1 cbr 500 ------- 0 0.0 1.0 63 63
+ 0.43 0 1 cbr 500 ------- 0 0.0 1.0 66 66
- 0.43 0 1 cbr 500 ------- 0 0.0 1.0 66 66
r 0.434 0 1 cbr 500 ------- 0 0.0 1.0 64 64
+ 0.435 0 1 cbr 500 ------- 0 0.0 1.0 67 67
- 0.435 0 1 cbr 500 ------- 0 0.0 1.0 67 67
r 0.439 0 1 cbr 500 ------- 0 0.0 1.0 65 65
+ 0.44 0 1 cbr 500 ------- 0 0.0 1.0 68 68
- 0.44 0 1 cbr 500 ------- 0 0.0 1.0 68 68
r 0.444 0 1 cbr 500 ------- 0 0.0 1.0 66 66
+ 0.445 0 1 cbr 500 ------- 0 0.0 1.0 69 69
- 0.445 0 1 cbr 500 ------- 0 0.0 1.0 69 69
r 0.449 0 1 cbr 500 ------- 0 0.0 1.0 67 67
+ 0.45 0 1 cbr 500 ------- 0 0.0 1.0 70 70
- 0.45 0 1 cbr 500 ------- 0 0.0 1.0 70 70
r 0.454 0 1 cbr 500 ------- 0 0.0 1.0 68 68
+ 0.455 0 1 cbr 500 ------- 0 0.0 1.0 71 71
- 0.455 0 1 cbr 500 ------- 0 0.0 1.0 71 71
r 0.459 0 1 cbr 500 ------- 0 0.0 1.0 69 69
+ 0.46 0 1 cbr 500 ------- 0 0.0 1.0 72 72
- 0.46 0 1 cbr 500 ------- 0 0.0 1.0 72 72
r 0.464 0 1 cbr 500 ------- 0 0.0 1.0 70 70
+ 0.465 0 1 cbr 500 ------- 0 0.0 1.0 73 73
- 0.465 0 1 cbr 500 ------- 0 0.0 1.0 73 73
r 0.469 0 1 cbr 500 ------- 0 0.0 1.0 71 71
+ 0.47 0 1 cbr 500 ------- 0 0.0 1.0 74 74
- 0.47 0 1 cbr 500 ------- 0 0.0 1.0 74 74
r 0.474 0 1 cbr 500 ------- 0 0.0 1.0 72 72
+ 0.475 0 1 cbr 500 ------- 0 0.0 1.0 75 75
- 0.475 0 1 cbr 500 ------- 0 0.0 1.0 75 75
r 0.479 0 1 cbr 500 ------- 0 0.0 1.0 73 73
+ 0.48 0 1 cbr 500 ------- 0 0.0 1.0 76 76
- 0.48 0 1 cbr 500 ------- 0 0.0 1.0 76 76
r 0.484 0 1 cbr 500 ------- 0 0.0 1.0 74 74
+ 0.485 0 1 cbr 500 ------- 0 0.0 1.0 77 77
- 0.485 0 1 cbr 500 ------- 0 0.0 1.0 77 77
r 0.489 0 1 cbr 500 ------- 0 0.0 1.0 75 75
+ 0.49 0 1 cbr 500 ------- 0 0.0 1.0 78 78
- 0.49 0 1 cbr 500 ------- 0 0.0 1.0 78 78
r 0.494 0 1 cbr 500 ------- 0 0.0 1.0 76 76
+ 0.495 0 1 cbr 500 ------- 0 0.0 1.0 79 79
- 0.495 0 1 cbr 500 ------- 0 0.0 1.0 79 79
r 0.499 0 1 cbr 500 ------- 0 0.0 1.0 77 77
+ 0.5 0 1 cbr 500 ------- 0 0.0 1.0 80 80
- 0.5 0 1 cbr 500 ------- 0 0.0 1.0 80 80
r 0.504 0 1 cbr 500 ------- 0 0.0 1.0 78 78
+ 0.505 0 1 cbr 500 ------- 0 0.0 1.0 81 81
- 0.505 0 1 cbr 500 ------- 0 0.0 1.0 81 81
r 0.509 0 1 cbr 500 ------- 0 0.0 1.0 79 79
+ 0.51 0 1 cbr 500 ------- 0 0.0 1.0 82 82
- 0.51 0 1 cbr 500 ------- 0 0.0 1.0 82 82
r 0.514 0 1 cbr 500 ------- 0 0.0 1.0 80 80
+ 0.515 0 1 cbr 500 ------- 0 0.0 1.0 83 83
- 0.515 0 1 cbr 500 ------- 0 0.0 1.0 83 83
r 0.519 0 1 cbr 500 ------- 0 0.0 1.0 81 81
+ 0.52 0 1 cbr 500 ------- 0 0.0 1.0 84 84
- 0.52 0 1 cbr 500 ------- 0 0.0 1.0 84 84
r 0.524 0 1 cbr 500 ------- 0 0.0 1.0 82 82
+ 0.525 0 1 cbr 500 ------- 0 0.0 1.0 85 85
- 0.525 0 1 cbr 500 ------- 0 0.0 1.0 85 85
r 0.529 0 1 cbr 500 ------- 0 0.0 1.0 83 83
+ 0.53 0 1 cbr 500 ------- 0 0.0 1.0 86 86
- 0.53 0 1 cbr 500 ------- 0 0.0 1.0 86 86
r 0.534 0 1 cbr 500 ------- 0 0.0 1.0 84 84
+ 0.535 0 1 cbr 500 ------- 0 0.0 1.0 87 87
- 0.535 0 1 cbr 500 ------- 0 0.0 1.0 87 87
r 0.539 0 1 cbr 500 ------- 0 0.0 1.0 85 85
+ 0.54 0 1 cbr 500 ------- 0 0.0 1.0 88 88
- 0.54 0 1 cbr 500 ------- 0 0.0 1.0 88 88
r 0.544 0 1 cbr 500 ------- 0 0.0 1.0 86 86
+ 0.545 0 1 cbr 500 ------- 0 0.0 1.0 89 89
- 0.545 0 1 cbr 500 ------- 0 0.0 1.0 89 89
r 0.549 0 1 cbr 500 ------- 0 0.0 1.0 87 87
+ 0.55 0 1 cbr 500 ------- 0 0.0 1.0 90 90
- 0.55 0 1 cbr 500 ------- 0 0.0 1.0 90 90
r 0.554 0 1 cbr 500 ------- 0 0.0 1.0 88 88
+ 0.555 0 1 cbr 500 ------- 0 0.0 1.0 91 91
- 0.555 0 1 cbr 500 ------- 0 0.0 1.0 91 91
r 0.559 0 1 cbr 500 ------- 0 0.0 1.0 89 89
+ 0.56 0 1 cbr 500 ------- 0 0.0 1.0 92 92
- 0.56 0 1 cbr 500 ------- 0 0.0 1.0 92 92
r 0.564 0 1 cbr 500 ------- 0 0.0 1.0 90 90
+ 0.565 0 1 cbr 500 ------- 0 0.0 1.0 93 93
- 0.565 0 1 cbr 500 ------- 0 0.0 1.0 93 93
r 0.569 0 1 cbr 500 ------- 0 0.0 1.0 91 91
+ 0.57 0 1 cbr 500 ------- 0 0.0 1.0 94 94
- 0.57 0 1 cbr 500 ------- 0 0.0 1.0 94 94
r 0.574 0 1 cbr 500 ------- 0 0.0 1.0 92 92
+ 0.575 0 1 cbr 500 ------- 0 0.0 1.0 95 95
- 0.575 0 1 cbr 500 ------- 0 0.0 1.0 95 95
r 0.579 0 1 cbr 500 ------- 0 0.0 1.0 93 93
+ 0.58 0 1 cbr 500 ------- 0 0.0 1.0 96 96
- 0.58 0 1 cbr 500 ------- 0 0.0 1.0 96 96
r 0.584 0 1 cbr 500 ------- 0 0.0 1.0 94 94
+ 0.585 0 1 cbr 500 ------- 0 0.0 1.0 97 97
- 0.585 0 1 cbr 500 ------- 0 0.0 1.0 97 97
r 0.589 0 1 cbr 500 ------- 0 0.0 1.0 95 95
+ 0.59 0 1 cbr 500 ------- 0 0.0 1.0 98 98
- 0.59 0 1 cbr 500 ------- 0 0.0 1.0 98 98
r 0.594 0 1 cbr 500 ------- 0 0.0 1.0 96 96
+ 0.595 0 1 cbr 500 ------- 0 0.0 1.0 99 99
- 0.595 0 1 cbr 500 ------- 0 0.0 1.0 99 99
r 0.599 0 1 cbr 500 ------- 0 0.0 1.0 97 97
+ 0.6 0 1 cbr 500 ------- 0 0.0 1.0 100 100
- 0.6 0 1 cbr 500 ------- 0 0.0 1.0 100 100
r 0.604 0 1 cbr 500 ------- 0 0.0 1.0 98 98
+ 0.605 0 1 cbr 500 ------- 0 0.0 1.0 101 101
- 0.605 0 1 cbr 500 ------- 0 0.0 1.0 101 101
r 0.609 0 1 cbr 500 ------- 0 0.0 1.0 99 99
+ 0.61 0 1 cbr 500 ------- 0 0.0 1.0 102 102
- 0.61 0 1 cbr 500 ------- 0 0.0 1.0 102 102
r 0.614 0 1 cbr 500 ------- 0 0.0 1.0 100 100
+ 0.615 0 1 cbr 500 ------- 0 0.0 1.0 103 103
- 0.615 0 1 cbr 500 ------- 0 0.0 1.0 103 103
r 0.619 0 1 cbr 500 ------- 0 0.0 1.0 101 101
+ 0.62 0 1 cbr 500 ------- 0 0.0 1.0 104 104
- 0.62 0 1 cbr 500 ------- 0 0.0 1.0 104 104
r 0.624 0 1 cbr 500 ------- 0 0.0 1.0 102 102
+ 0.625 0 1 cbr 500 ------- 0 0.0 1.0 105 105
- 0.625 0 1 cbr 500 ------- 0 0.0 1.0 105 105
r 0.629 0 1 cbr 500 ------- 0 0.0 1.0 103 103
+ 0.63 0 1 cbr 500 ------- 0 0.0 1.0 106 106
- 0.63 0 1 cbr 500 ------- 0 0.0 1.0 106 106
r 0.634 0 1 cbr 500 ------- 0 0.0 1.0 104 104
+ 0.635 0 1 cbr 500 ------- 0 0.0 1.0 107 107
- 0.635 0 1 cbr 500 ------- 0 0.0 1.0 107 107
r 0.639 0 1 cbr 500 ------- 0 0.0 1.0 105 105
+ 0.64 0 1 cbr 500 ------- 0 0.0 1.0 108 108
- 0.64 0 1 cbr 500 ------- 0 0.0 1.0 108 108
r 0.644 0 1 cbr 500 ------- 0 0.0 1.0 106 106
+ 0.645 0 1 cbr 500 ------- 0 0.0 1.0 109 109
- 0.645 0 1 cbr 500 ------- 0 0.0 1.0 109 109
r 0.649 0 1 cbr 500 ------- 0 0.0 1.0 107 107
+ 0.65 0 1 cbr 500 ------- 0 0.0 1.0 110 110
- 0.65 0 1 cbr 500 ------- 0 0.0 1.0 110 110
r 0.654 0 1 cbr 500 ------- 0 0.0 1.0 108 108
+ 0.655 0 1 cbr 500 ------- 0 0.0 1.0 111 111
- 0.655 0 1 cbr 500 ------- 0 0.0 1.0 111 111
r 0.659 0 1 cbr 500 ------- 0 0.0 1.0 109 109
+ 0.66 0 1 cbr 500 ------- 0 0.0 1.0 112 112
- 0.66 0 1 cbr 500 ------- 0 0.0 1.0 112 112
r 0.664 0 1 cbr 500 ------- 0 0.0 1.0 110 110
+ 0.665 0 1 cbr 500 ------- 0 0.0 1.0 113 113
- 0.665 0 1 cbr 500 ------- 0 0.0 1.0 113 113
r 0.669 0 1 cbr 500 ------- 0 0.0 1.0 111 111
+ 0.67 0 1 cbr 500 ------- 0 0.0 1.0 114 114
- 0.67 0 1 cbr 500 ------- 0 0.0 1.0 114 114
r 0.674 0 1 cbr 500 ------- 0 0.0 1.0 112 112
+ 0.675 0 1 cbr 500 ------- 0 0.0 1.0 115 115
- 0.675 0 1 cbr 500 ------- 0 0.0 1.0 115 115
r 0.679 0 1 cbr 500 ------- 0 0.0 1.0 113 113
+ 0.68 0 1 cbr 500 ------- 0 0.0 1.0 116 116
- 0.68 0 1 cbr 500 ------- 0 0.0 1.0 116 116
r 0.684 0 1 cbr 500 ------- 0 0.0 1.0 114 114
+ 0.685 0 1 cbr 500 ------- 0 0.0 1.0 117 117
- 0.685 0 1 cbr 500 ------- 0 0.0 1.0 117 117
r 0.689 0 1 cbr 500 ------- 0 0.0 1.0 115 115
+ 0.69 0 1 cbr 500 ------- 0 0.0 1.0 118 118
- 0.69 0 1 cbr 500 ------- 0 0.0 1.0 118 118
r 0.694 0 1 cbr 500 ------- 0 0.0 1.0 116 116
+ 0.695 0 1 cbr 500 ------- 0 0.0 1.0 119 119
- 0.695 0 1 cbr 500 ------- 0 0.0 1.0 119 119
r 0.699 0 1 cbr 500 ------- 0 0.0 1.0 117 117
+ 0.7 0 1 cbr 500 ------- 0 0.0 1.0 120 120
- 0.7 0 1 cbr 500 ------- 0 0.0 1.0 120 120
r 0.704 0 1 cbr 500 ------- 0 0.0 1.0 118 118
+ 0.705 0 1 cbr 500 ------- 0 0.0 1.0 121 121
- 0.705 0 1 cbr 500 ------- 0 0.0 1.0 121 121
r 0.709 0 1 cbr 500 ------- 0 0.0 1.0 119 119
+ 0.71 0 1 cbr 500 ------- 0 0.0 1.0 122 122
- 0.71 0 1 cbr 500 ------- 0 0.0 1.0 122 122
r 0.714 0 1 cbr 500 ------- 0 0.0 1.0 120 120
+ 0.715 0 1 cbr 500 ------- 0 0.0 1.0 123 123
- 0.715 0 1 cbr 500 ------- 0 0.0 1.0 123 123
r 0.719 0 1 cbr 500 ------- 0 0.0 1.0 121 121
+ 0.72 0 1 cbr 500 ------- 0 0.0 1.0 124 124
- 0.72 0 1 cbr 500 ------- 0 0.0 1.0 124 124
r 0.724 0 1 cbr 500 ------- 0 0.0 1.0 122 122
+ 0.725 0 1 cbr 500 ------- 0 0.0 1.0 125 125
- 0.725 0 1 cbr 500 ------- 0 0.0 1.0 125 125
r 0.729 0 1 cbr 500 ------- 0 0.0 1.0 123 123
+ 0.73 0 1 cbr 500 ------- 0 0.0 1.0 126 126
- 0.73 0 1 cbr 500 ------- 0 0.0 1.0 126 126
r 0.734 0 1 cbr 500 ------- 0 0.0 1.0 124 124
+ 0.735 0 1 cbr 500 ------- 0 0.0 1.0 127 127
- 0.735 0 1 cbr 500 ------- 0 0.0 1.0 127 127
r 0.739 0 1 cbr 500 ------- 0 0.0 1.0 125 125
+ 0.74 0 1 cbr 500 ------- 0 0.0 1.0 128 128
- 0.74 0 1 cbr 500 ------- 0 0.0 1.0 128 128
r 0.744 0 1 cbr 500 ------- 0 0.0 1.0 126 126
+ 0.745 0 1 cbr 500 ------- 0 0.0 1.0 129 129
- 0.745 0 1 cbr 500 ------- 0 0.0 1.0 129 129
r 0.749 0 1 cbr 500 ------- 0 0.0 1.0 127 127
+ 0.75 0 1 cbr 500 ------- 0 0.0 1.0 130 130
- 0.75 0 1 cbr 500 ------- 0 0.0 1.0 130 130
r 0.754 0 1 cbr 500 ------- 0 0.0 1.0 128 128
+ 0.755 0 1 cbr 500 ------- 0 0.0 1.0 131 131
- 0.755 0 1 cbr 500 ------- 0 0.0 1.0 131 131
r 0.759 0 1 cbr 500 ------- 0 0.0 1.0 129 129
+ 0.76 0 1 cbr 500 ------- 0 0.0 1.0 132 132
- 0.76 0 1 cbr 500 ------- 0 0.0 1.0 132 132
r 0.764 0 1 cbr 500 ------- 0 0.0 1.0 130 130
+ 0.765 0 1 cbr 500 ------- 0 0.0 1.0 133 133
- 0.765 0 1 cbr 500 ------- 0 0.0 1.0 133 133
r 0.769 0 1 cbr 500 ------- 0 0.0 1.0 131 131
+ 0.77 0 1 cbr 500 ------- 0 0.0 1.0 134 134
- 0.77 0 1 cbr 500 ------- 0 0.0 1.0 134 134
r 0.774 0 1 cbr 500 ------- 0 0.0 1.0 132 132
+ 0.775 0 1 cbr 500 ------- 0 0.0 1.0 135 135
- 0.775 0 1 cbr 500 ------- 0 0.0 1.0 135 135
r 0.779 0 1 cbr 500 ------- 0 0.0 1.0 133 133
+ 0.78 0 1 cbr 500 ------- 0 0.0 1.0 136 136
- 0.78 0 1 cbr 500 ------- 0 0.0 1.0 136 136
r 0.784 0 1 cbr 500 ------- 0 0.0 1.0 134 134
+ 0.785 0 1 cbr 500 ------- 0 0.0 1.0 137 137
- 0.785 0 1 cbr 500 ------- 0 0.0 1.0 137 137
r 0.789 0 1 cbr 500 ------- 0 0.0 1.0 135 135
+ 0.79 0 1 cbr 500 ------- 0 0.0 1.0 138 138
- 0.79 0 1 cbr 500 ------- 0 0.0 1.0 138 138
r 0.794 0 1 cbr 500 ------- 0 0.0 1.0 136 136
+ 0.795 0 1 cbr 500 ------- 0 0.0 1.0 139 139
- 0.795 0 1 cbr 500 ------- 0 0.0 1.0 139 139
r 0.799 0 1 cbr 500 ------- 0 0.0 1.0 137 137
+ 0.8 0 1 cbr 500 ------- 0 0.0 1.0 140 140
- 0.8 0 1 cbr 500 ------- 0 0.0 1.0 140 140
r 0.804 0 1 cbr 500 ------- 0 0.0 1.0 138 138
+ 0.805 0 1 cbr 500 ------- 0 0.0 1.0 141 141
- 0.805 0 1 cbr 500 ------- 0 0.0 1.0 141 141
r 0.809 0 1 cbr 500 ------- 0 0.0 1.0 139 139
+ 0.81 0 1 cbr 500 ------- 0 0.0 1.0 142 142
- 0.81 0 1 cbr 500 ------- 0 0.0 1.0 142 142
r 0.814 0 1 cbr 500 ------- 0 0.0 1.0 140 140
+ 0.815 0 1 cbr 500 ------- 0 0.0 1.0 143 143
- 0.815 0 1 cbr 500 ------- 0 0.0 1.0 143 143
r 0.819 0 1 cbr 500 ------- 0 0.0 1.0 141 141
+ 0.82 0 1 cbr 500 ------- 0 0.0 1.0 144 144
- 0.82 0 1 cbr 500 ------- 0 0.0 1.0 144 144
r 0.824 0 1 cbr 500 ------- 0 0.0 1.0 142 142
+ 0.825 0 1 cbr 500 ------- 0 0.0 1.0 145 145
- 0.825 0 1 cbr 500 ------- 0 0.0 1.0 145 145
r 0.829 0 1 cbr 500 ------- 0 0.0 1.0 143 143
+ 0.83 0 1 cbr 500 ------- 0 0.0 1.0 146 146
- 0.83 0 1 cbr 500 ------- 0 0.0 1.0 146 146
r 0.834 0 1 cbr 500 ------- 0 0.0 1.0 144 144
+ 0.835 0 1 cbr 500 ------- 0 0.0 1.0 147 147
- 0.835 0 1 cbr 500 ------- 0 0.0 1.0 147 147
r 0.839 0 1 cbr 500 ------- 0 0.0 1.0 145 145
+ 0.84 0 1 cbr 500 ------- 0 0.0 1.0 148 148
- 0.84 0 1 cbr 500 ------- 0 0.0 1.0 148 148
r 0.844 0 1 cbr 500 ------- 0 0.0 1.0 146 146
+ 0.845 0 1 cbr 500 ------- 0 0.0 1.0 149 149
- 0.845 0 1 cbr 500 ------- 0 0.0 1.0 149 149
r 0.849 0 1 cbr 500 ------- 0 0.0 1.0 147 147
+ 0.85 0 1 cbr 500 ------- 0 0.0 1.0 150 150
- 0.85 0 1 cbr 500 ------- 0 0.0 1.0 150 150
r 0.854 0 1 cbr 500 ------- 0 0.0 1.0 148 148
+ 0.855 0 1 cbr 500 ------- 0 0.0 1.0 151 151
- 0.855 0 1 cbr 500 ------- 0 0.0 1.0 151 151
r 0.859 0 1 cbr 500 ------- 0 0.0 1.0 149 149
+ 0.86 0 1 cbr 500 ------- 0 0.0 1.0 152 152
- 0.86 0 1 cbr 500 ------- 0 0.0 1.0 152 152
r 0.864 0 1 cbr 500 ------- 0 0.0 1.0 150 150
+ 0.865 0 1 cbr 500 ------- 0 0.0 1.0 153 153
- 0.865 0 1 cbr 500 ------- 0 0.0 1.0 153 153
r 0.869 0 1 cbr 500 ------- 0 0.0 1.0 151 151
+ 0.87 0 1 cbr 500 ------- 0 0.0 1.0 154 154
- 0.87 0 1 cbr 500 ------- 0 0.0 1.0 154 154
r 0.874 0 1 cbr 500 ------- 0 0.0 1.0 152 152
+ 0.875 0 1 cbr 500 ------- 0 0.0 1.0 155 155
- 0.875 0 1 cbr 500 ------- 0 0.0 1.0 155 155
r 0.879 0 1 cbr 500 ------- 0 0.0 1.0 153 153
+ 0.88 0 1 cbr 500 ------- 0 0.0 1.0 156 156
- 0.88 0 1 cbr 500 ------- 0 0.0 1.0 156 156
r 0.884 0 1 cbr 500 ------- 0 0.0 1.0 154 154
+ 0.885 0 1 cbr 500 ------- 0 0.0 1.0 157 157
- 0.885 0 1 cbr 500 ------- 0 0.0 1.0 157 157
r 0.889 0 1 cbr 500 ------- 0 0.0 1.0 155 155
+ 0.89 0 1 cbr 500 ------- 0 0.0 1.0 158 158
- 0.89 0 1 cbr 500 ------- 0 0.0 1.0 158 158
r 0.894 0 1 cbr 500 ------- 0 0.0 1.0 156 156
+ 0.895 0 1 cbr 500 ------- 0 0.0 1.0 159 159
- 0.895 0 1 cbr 500 ------- 0 0.0 1.0 159 159
r 0.899 0 1 cbr 500 ------- 0 0.0 1.0 157 157
+ 0.9 0 1 cbr 500 ------- 0 0.0 1.0 160 160
- 0.9 0 1 cbr 500 ------- 0 0.0 1.0 160 160
r 0.904 0 1 cbr 500 ------- 0 0.0 1.0 158 158
+ 0.905 0 1 cbr 500 ------- 0 0.0 1.0 161 161
- 0.905 0 1 cbr 500 ------- 0 0.0 1.0 161 161
r 0.909 0 1 cbr 500 ------- 0 0.0 1.0 159 159
+ 0.91 0 1 cbr 500 ------- 0 0.0 1.0 162 162
- 0.91 0 1 cbr 500 ------- 0 0.0 1.0 162 162
r 0.914 0 1 cbr 500 ------- 0 0.0 1.0 160 160
+ 0.915 0 1 cbr 500 ------- 0 0.0 1.0 163 163
- 0.915 0 1 cbr 500 ------- 0 0.0 1.0 163 163
r 0.919 0 1 cbr 500 ------- 0 0.0 1.0 161 161
+ 0.92 0 1 cbr 500 ------- 0 0.0 1.0 164 164
- 0.92 0 1 cbr 500 ------- 0 0.0 1.0 164 164
r 0.924 0 1 cbr 500 ------- 0 0.0 1.0 162 162
+ 0.925 0 1 cbr 500 ------- 0 0.0 1.0 165 165
- 0.925 0 1 cbr 500 ------- 0 0.0 1.0 165 165
r 0.929 0 1 cbr 500 ------- 0 0.0 1.0 163 163
+ 0.93 0 1 cbr 500 ------- 0 0.0 1.0 166 166
- 0.93 0 1 cbr 500 ------- 0 0.0 1.0 166 166
r 0.934 0 1 cbr 500 ------- 0 0.0 1.0 164 164
+ 0.935 0 1 cbr 500 ------- 0 0.0 1.0 167 167
- 0.935 0 1 cbr 500 ------- 0 0.0 1.0 167 167
r 0.939 0 1 cbr 500 ------- 0 0.0 1.0 165 165
+ 0.94 0 1 cbr 500 ------- 0 0.0 1.0 168 168
- 0.94 0 1 cbr 500 ------- 0 0.0 1.0 168 168
r 0.944 0 1 cbr 500 ------- 0 0.0 1.0 166 166
+ 0.945 0 1 cbr 500 ------- 0 0.0 1.0 169 169
- 0.945 0 1 cbr 500 ------- 0 0.0 1.0 169 169
r 0.949 0 1 cbr 500 ------- 0 0.0 1.0 167 167
+ 0.95 0 1 cbr 500 ------- 0 0.0 1.0 170 170
- 0.95 0 1 cbr 500 ------- 0 0.0 1.0 170 170
r 0.954 0 1 cbr 500 ------- 0 0.0 1.0 168 168
+ 0.955 0 1 cbr 500 ------- 0 0.0 1.0 171 171
- 0.955 0 1 cbr 500 ------- 0 0.0 1.0 171 171
r 0.959 0 1 cbr 500 ------- 0 0.0 1.0 169 169
+ 0.96 0 1 cbr 500 ------- 0 0.0 1.0 172 172
- 0.96 0 1 cbr 500 ------- 0 0.0 1.0 172 172
r 0.964 0 1 cbr 500 ------- 0 0.0 1.0 170 170
+ 0.965 0 1 cbr 500 ------- 0 0.0 1.0 173 173
- 0.965 0 1 cbr 500 ------- 0 0.0 1.0 173 173
r 0.969 0 1 cbr 500 ------- 0 0.0 1.0 171 171
+ 0.97 0 1 cbr 500 ------- 0 0.0 1.0 174 174
- 0.97 0 1 cbr 500 ------- 0 0.0 1.0 174 174
r 0.974 0 1 cbr 500 ------- 0 0.0 1.0 172 172
+ 0.975 0 1 cbr 500 ------- 0 0.0 1.0 175 175
- 0.975 0 1 cbr 500 ------- 0 0.0 1.0 175 175
r 0.979 0 1 cbr 500 ------- 0 0.0 1.0 173 173
+ 0.98 0 1 cbr 500 ------- 0 0.0 1.0 176 176
- 0.98 0 1 cbr 500 ------- 0 0.0 1.0 176 176
r 0.984 0 1 cbr 500 ------- 0 0.0 1.0 174 174
+ 0.985 0 1 cbr 500 ------- 0 0.0 1.0 177 177
- 0.985 0 1 cbr 500 ------- 0 0.0 1.0 177 177
r 0.989 0 1 cbr 500 ------- 0 0.0 1.0 175 175
+ 0.99 0 1 cbr 500 ------- 0 0.0 1.0 178 178
- 0.99 0 1 cbr 500 ------- 0 0.0 1.0 178 178
r 0.994 0 1 cbr 500 ------- 0 0.0 1.0 176 176
+ 0.995 0 1 cbr 500 ------- 0 0.0 1.0 179 179
- 0.995 0 1 cbr 500 ------- 0 0.0 1.0 179 179
r 0.999 0 1 cbr 500 ------- 0 0.0 1.0 177 177
+ 1 0 1 cbr 500 ------- 0 0.0 1.0 180 180
- 1 0 1 cbr 500 ------- 0 0.0 1.0 180 180
r 1.004 0 1 cbr 500 ------- 0 0.0 1.0 178 178
+ 1.005 0 1 cbr 500 ------- 0 0.0 1.0 181 181
- 1.005 0 1 cbr 500 ------- 0 0.0 1.0 181 181
r 1.009 0 1 cbr 500 ------- 0 0.0 1.0 179 179
+ 1.01 0 1 cbr 500 ------- 0 0.0 1.0 182 182
- 1.01 0 1 cbr 500 ------- 0 0.0 1.0 182 182
r 1.014 0 1 cbr 500 ------- 0 0.0 1.0 180 180
+ 1.015 0 1 cbr 500 ------- 0 0.0 1.0 183 183
- 1.015 0 1 cbr 500 ------- 0 0.0 1.0 183 183
r 1.019 0 1 cbr 500 ------- 0 0.0 1.0 181 181
+ 1.02 0 1 cbr 500 ------- 0 0.0 1.0 184 184
- 1.02 0 1 cbr 500 ------- 0 0.0 1.0 184 184
r 1.024 0 1 cbr 500 ------- 0 0.0 1.0 182 182
+ 1.025 0 1 cbr 500 ------- 0 0.0 1.0 185 185
- 1.025 0 1 cbr 500 ------- 0 0.0 1.0 185 185
r 1.029 0 1 cbr 500 ------- 0 0.0 1.0 183 183
+ 1.03 0 1 cbr 500 ------- 0 0.0 1.0 186 186
- 1.03 0 1 cbr 500 ------- 0 0.0 1.0 186 186
r 1.034 0 1 cbr 500 ------- 0 0.0 1.0 184 184
+ 1.035 0 1 cbr 500 ------- 0 0.0 1.0 187 187
- 1.035 0 1 cbr 500 ------- 0 0.0 1.0 187 187
r 1.039 0 1 cbr 500 ------- 0 0.0 1.0 185 185
+ 1.04 0 1 cbr 500 ------- 0 0.0 1.0 188 188
- 1.04 0 1 cbr 500 ------- 0 0.0 1.0 188 188
r 1.044 0 1 cbr 500 ------- 0 0.0 1.0 186 186
+ 1.045 0 1 cbr 500 ------- 0 0.0 1.0 189 189
- 1.045 0 1 cbr 500 ------- 0 0.0 1.0 189 189
r 1.049 0 1 cbr 500 ------- 0 0.0 1.0 187 187
+ 1.05 0 1 cbr 500 ------- 0 0.0 1.0 190 190
- 1.05 0 1 cbr 500 ------- 0 0.0 1.0 190 190
r 1.054 0 1 cbr 500 ------- 0 0.0 1.0 188 188
+ 1.055 0 1 cbr 500 ------- 0 0.0 1.0 191 191
- 1.055 0 1 cbr 500 ------- 0 0.0 1.0 191 191
r 1.059 0 1 cbr 500 ------- 0 0.0 1.0 189 189
+ 1.06 0 1 cbr 500 ------- 0 0.0 1.0 192 192
- 1.06 0 1 cbr 500 ------- 0 0.0 1.0 192 192
r 1.064 0 1 cbr 500 ------- 0 0.0 1.0 190 190
+ 1.065 0 1 cbr 500 ------- 0 0.0 1.0 193 193
- 1.065 0 1 cbr 500 ------- 0 0.0 1.0 193 193
r 1.069 0 1 cbr 500 ------- 0 0.0 1.0 191 191
+ 1.07 0 1 cbr 500 ------- 0 0.0 1.0 194 194
- 1.07 0 1 cbr 500 ------- 0 0.0 1.0 194 194
r 1.074 0 1 cbr 500 ------- 0 0.0 1.0 192 192
+ 1.075 0 1 cbr 500 ------- 0 0.0 1.0 195 195
- 1.075 0 1 cbr 500 ------- 0 0.0 1.0 195 195
r 1.079 0 1 cbr 500 ------- 0 0.0 1.0 193 193
+ 1.08 0 1 cbr 500 ------- 0 0.0 1.0 196 196
- 1.08 0 1 cbr 500 ------- 0 0.0 1.0 196 196
r 1.084 0 1 cbr 500 ------- 0 0.0 1.0 194 194
+ 1.085 0 1 cbr 500 ------- 0 0.0 1.0 197 197
- 1.085 0 1 cbr 500 ------- 0 0.0 1.0 197 197
r 1.089 0 1 cbr 500 ------- 0 0.0 1.0 195 195
+ 1.09 0 1 cbr 500 ------- 0 0.0 1.0 198 198
- 1.09 0 1 cbr 500 ------- 0 0.0 1.0 198 198
r 1.094 0 1 cbr 500 ------- 0 0.0 1.0 196 196
+ 1.095 0 1 cbr 500 ------- 0 0.0 1.0 199 199
- 1.095 0 1 cbr 500 ------- 0 0.0 1.0 199 199
r 1.099 0 1 cbr 500 ------- 0 0.0 1.0 197 197
+ 1.1 0 1 cbr 500 ------- 0 0.0 1.0 200 200
- 1.1 0 1 cbr 500 ------- 0 0.0 1.0 200 200
r 1.104 0 1 cbr 500 ------- 0 0.0 1.0 198 198
+ 1.105 0 1 cbr 500 ------- 0 0.0 1.0 201 201
- 1.105 0 1 cbr 500 ------- 0 0.0 1.0 201 201
r 1.109 0 1 cbr 500 ------- 0 0.0 1.0 199 199
+ 1.11 0 1 cbr 500 ------- 0 0.0 1.0 202 202
- 1.11 0 1 cbr 500 ------- 0 0.0 1.0 202 202
r 1.114 0 1 cbr 500 ------- 0 0.0 1.0 200 200
+ 1.115 0 1 cbr 500 ------- 0 0.0 1.0 203 203
- 1.115 0 1 cbr 500 ------- 0 0.0 1.0 203 203
r 1.119 0 1 cbr 500 ------- 0 0.0 1.0 201 201
+ 1.12 0 1 cbr 500 ------- 0 0.0 1.0 204 204
- 1.12 0 1 cbr 500 ------- 0 0.0 1.0 204 204
r 1.124 0 1 cbr 500 ------- 0 0.0 1.0 202 202
+ 1.125 0 1 cbr 500 ------- 0 0.0 1.0 205 205
- 1.125 0 1 cbr 500 ------- 0 0.0 1.0 205 205
r 1.129 0 1 cbr 500 ------- 0 0.0 1.0 203 203
+ 1.13 0 1 cbr 500 ------- 0 0.0 1.0 206 206
- 1.13 0 1 cbr 500 ------- 0 0.0 1.0 206 206
r 1.134 0 1 cbr 500 ------- 0 0.0 1.0 204 204
+ 1.135 0 1 cbr 500 ------- 0 0.0 1.0 207 207
- 1.135 0 1 cbr 500 ------- 0 0.0 1.0 207 207
r 1.139 0 1 cbr 500 ------- 0 0.0 1.0 205 205
+ 1.14 0 1 cbr 500 ------- 0 0.0 1.0 208 208
- 1.14 0 1 cbr 500 ------- 0 0.0 1.0 208 208
r 1.144 0 1 cbr 500 ------- 0 0.0 1.0 206 206
+ 1.145 0 1 cbr 500 ------- 0 0.0 1.0 209 209
- 1.145 0 1 cbr 500 ------- 0 0.0 1.0 209 209
r 1.149 0 1 cbr 500 ------- 0 0.0 1.0 207 207
+ 1.15 0 1 cbr 500 ------- 0 0.0 1.0 210 210
- 1.15 0 1 cbr 500 ------- 0 0.0 1.0 210 210
r 1.154 0 1 cbr 500 ------- 0 0.0 1.0 208 208
+ 1.155 0 1 cbr 500 ------- 0 0.0 1.0 211 211
- 1.155 0 1 cbr 500 ------- 0 0.0 1.0 211 211
r 1.159 0 1 cbr 500 ------- 0 0.0 1.0 209 209
+ 1.16 0 1 cbr 500 ------- 0 0.0 1.0 212 212
- 1.16 0 1 cbr 500 ------- 0 0.0 1.0 212 212
r 1.164 0 1 cbr 500 ------- 0 0.0 1.0 210 210
+ 1.165 0 1 cbr 500 ------- 0 0.0 1.0 213 213
- 1.165 0 1 cbr 500 ------- 0 0.0 1.0 213 213
r 1.169 0 1 cbr 500 ------- 0 0.0 1.0 211 211
+ 1.17 0 1 cbr 500 ------- 0 0.0 1.0 214 214
- 1.17 0 1 cbr 500 ------- 0 0.0 1.0 214 214
r 1.174 0 1 cbr 500 ------- 0 0.0 1.0 212 212
+ 1.175 0 1 cbr 500 ------- 0 0.0 1.0 215 215
- 1.175 0 1 cbr 500 ------- 0 0.0 1.0 215 215
r 1.179 0 1 cbr 500 ------- 0 0.0 1.0 213 213
+ 1.18 0 1 cbr 500 ------- 0 0.0 1.0 216 216
- 1.18 0 1 cbr 500 ------- 0 0.0 1.0 216 216
r 1.184 0 1 cbr 500 ------- 0 0.0 1.0 214 214
+ 1.185 0 1 cbr 500 ------- 0 0.0 1.0 217 217
- 1.185 0 1 cbr 500 ------- 0 0.0 1.0 217 217
r 1.189 0 1 cbr 500 ------- 0 0.0 1.0 215 215
+ 1.19 0 1 cbr 500 ------- 0 0.0 1.0 218 218
- 1.19 0 1 cbr 500 ------- 0 0.0 1.0 218 218
r 1.194 0 1 cbr 500 ------- 0 0.0 1.0 216 216
+ 1.195 0 1 cbr 500 ------- 0 0.0 1.0 219 219
- 1.195 0 1 cbr 500 ------- 0 0.0 1.0 219 219
r 1.199 0 1 cbr 500 ------- 0 0.0 1.0 217 217
+ 1.2 0 1 cbr 500 ------- 0 0.0 1.0 220 220
- 1.2 0 1 cbr 500 ------- 0 0.0 1.0 220 220
r 1.204 0 1 cbr 500 ------- 0 0.0 1.0 218 218
+ 1.205 0 1 cbr 500 ------- 0 0.0 1.0 221 221
- 1.205 0 1 cbr 500 ------- 0 0.0 1.0 221 221
r 1.209 0 1 cbr 500 ------- 0 0.0 1.0 219 219
+ 1.21 0 1 cbr 500 ------- 0 0.0 1.0 222 222
- 1.21 0 1 cbr 500 ------- 0 0.0 1.0 222 222
r 1.214 0 1 cbr 500 ------- 0 0.0 1.0 220 220
+ 1.215 0 1 cbr 500 ------- 0 0.0 1.0 223 223
- 1.215 0 1 cbr 500 ------- 0 0.0 1.0 223 223
r 1.219 0 1 cbr 500 ------- 0 0.0 1.0 221 221
+ 1.22 0 1 cbr 500 ------- 0 0.0 1.0 224 224
- 1.22 0 1 cbr 500 ------- 0 0.0 1.0 224 224